  12  12   0   0
  0.1112022E+02  0.5587055E-09  0.4895683E-09  0.5672273E-09  0.5000000E-15
  1.000000000000000E-004
  CAR 
 unknown system                          
     20.77541664    -17.15048773  301      4.72562289      1.00000000
    -17.150  0.0000E+00  0.0000E+00  0.0000E+00  0.0000E+00
    -17.024  0.0000E+00  0.0000E+00  0.0000E+00  0.0000E+00
    -16.898  0.0000E+00  0.0000E+00  0.0000E+00  0.0000E+00
    -16.771  0.0000E+00  0.0000E+00  0.0000E+00  0.0000E+00
    -16.645  0.0000E+00  0.0000E+00  0.0000E+00  0.0000E+00
    -16.518  0.0000E+00  0.0000E+00  0.0000E+00  0.0000E+00
    -16.392  0.0000E+00  0.0000E+00  0.0000E+00  0.0000E+00
    -16.266  0.0000E+00  0.0000E+00  0.0000E+00  0.0000E+00
    -16.139  0.0000E+00  0.0000E+00  0.0000E+00  0.0000E+00
    -16.013  0.0000E+00  0.0000E+00  0.0000E+00  0.0000E+00
    -15.886  0.0000E+00  0.0000E+00  0.0000E+00  0.0000E+00
    -15.760  0.0000E+00  0.0000E+00  0.0000E+00  0.0000E+00
    -15.633  0.0000E+00  0.0000E+00  0.0000E+00  0.0000E+00
    -15.507  0.3441E-08  0.3441E-08  0.4350E-09  0.4350E-09
    -15.381  0.1377E-03  0.1377E-03  0.1741E-04  0.1741E-04
    -15.254  0.9662E-03  0.9662E-03  0.1396E-03  0.1396E-03
    -15.128  0.2202E-02  0.2202E-02  0.4179E-03  0.4179E-03
    -15.001  0.3117E-02  0.3117E-02  0.8120E-03  0.8120E-03
    -14.875  0.5274E-02  0.5274E-02  0.1479E-02  0.1479E-02
    -14.749  0.8051E-02  0.8051E-02  0.2497E-02  0.2497E-02
    -14.622  0.2122E-01  0.2122E-01  0.5179E-02  0.5179E-02
    -14.496  0.1901E-01  0.1901E-01  0.7582E-02  0.7582E-02
    -14.369  0.3304E-02  0.3304E-02  0.8000E-02  0.8000E-02
    -14.243  0.3563E-04  0.3563E-04  0.8004E-02  0.8004E-02
    -14.116  0.3094E-02  0.3094E-02  0.8396E-02  0.8396E-02
    -13.990  0.1761E-01  0.1761E-01  0.1062E-01  0.1062E-01
    -13.864  0.2846E-01  0.2846E-01  0.1422E-01  0.1422E-01
    -13.737  0.1097E-01  0.1097E-01  0.1561E-01  0.1561E-01
    -13.611  0.3107E-02  0.3107E-02  0.1600E-01  0.1600E-01
    -13.484  0.3010E-05  0.3010E-05  0.1600E-01  0.1600E-01
    -13.358  0.0000E+00  0.0000E+00  0.1600E-01  0.1600E-01
    -13.231  0.0000E+00  0.0000E+00  0.1600E-01  0.1600E-01
    -13.105  0.0000E+00  0.0000E+00  0.1600E-01  0.1600E-01
    -12.979  0.0000E+00  0.0000E+00  0.1600E-01  0.1600E-01
    -12.852  0.0000E+00  0.0000E+00  0.1600E-01  0.1600E-01
    -12.726  0.0000E+00  0.0000E+00  0.1600E-01  0.1600E-01
    -12.599  0.0000E+00  0.0000E+00  0.1600E-01  0.1600E-01
    -12.473  0.0000E+00  0.0000E+00  0.1600E-01  0.1600E-01
    -12.347  0.0000E+00  0.0000E+00  0.1600E-01  0.1600E-01
    -12.220  0.0000E+00  0.0000E+00  0.1600E-01  0.1600E-01
    -12.094  0.0000E+00  0.0000E+00  0.1600E-01  0.1600E-01
    -11.967  0.0000E+00  0.0000E+00  0.1600E-01  0.1600E-01
    -11.841  0.0000E+00  0.0000E+00  0.1600E-01  0.1600E-01
    -11.714  0.0000E+00  0.0000E+00  0.1600E-01  0.1600E-01
    -11.588  0.0000E+00  0.0000E+00  0.1600E-01  0.1600E-01
    -11.462  0.0000E+00  0.0000E+00  0.1600E-01  0.1600E-01
    -11.335  0.0000E+00  0.0000E+00  0.1600E-01  0.1600E-01
    -11.209  0.0000E+00  0.0000E+00  0.1600E-01  0.1600E-01
    -11.082  0.0000E+00  0.0000E+00  0.1600E-01  0.1600E-01
    -10.956  0.0000E+00  0.0000E+00  0.1600E-01  0.1600E-01
    -10.830  0.0000E+00  0.0000E+00  0.1600E-01  0.1600E-01
    -10.703  0.0000E+00  0.0000E+00  0.1600E-01  0.1600E-01
    -10.577  0.0000E+00  0.0000E+00  0.1600E-01  0.1600E-01
    -10.450  0.0000E+00  0.0000E+00  0.1600E-01  0.1600E-01
    -10.324  0.0000E+00  0.0000E+00  0.1600E-01  0.1600E-01
    -10.197  0.0000E+00  0.0000E+00  0.1600E-01  0.1600E-01
    -10.071  0.0000E+00  0.0000E+00  0.1600E-01  0.1600E-01
     -9.945  0.0000E+00  0.0000E+00  0.1600E-01  0.1600E-01
     -9.818  0.0000E+00  0.0000E+00  0.1600E-01  0.1600E-01
     -9.692  0.0000E+00  0.0000E+00  0.1600E-01  0.1600E-01
     -9.565  0.0000E+00  0.0000E+00  0.1600E-01  0.1600E-01
     -9.439  0.0000E+00  0.0000E+00  0.1600E-01  0.1600E-01
     -9.312  0.0000E+00  0.0000E+00  0.1600E-01  0.1600E-01
     -9.186  0.0000E+00  0.0000E+00  0.1600E-01  0.1600E-01
     -9.060  0.0000E+00  0.0000E+00  0.1600E-01  0.1600E-01
     -8.933  0.0000E+00  0.0000E+00  0.1600E-01  0.1600E-01
     -8.807  0.0000E+00  0.0000E+00  0.1600E-01  0.1600E-01
     -8.680  0.0000E+00  0.0000E+00  0.1600E-01  0.1600E-01
     -8.554  0.0000E+00  0.0000E+00  0.1600E-01  0.1600E-01
     -8.428  0.0000E+00  0.0000E+00  0.1600E-01  0.1600E-01
     -8.301  0.0000E+00  0.0000E+00  0.1600E-01  0.1600E-01
     -8.175  0.0000E+00  0.0000E+00  0.1600E-01  0.1600E-01
     -8.048  0.0000E+00  0.0000E+00  0.1600E-01  0.1600E-01
     -7.922  0.0000E+00  0.0000E+00  0.1600E-01  0.1600E-01
     -7.795  0.0000E+00  0.0000E+00  0.1600E-01  0.1600E-01
     -7.669  0.0000E+00  0.0000E+00  0.1600E-01  0.1600E-01
     -7.543  0.0000E+00  0.0000E+00  0.1600E-01  0.1600E-01
     -7.416  0.0000E+00  0.0000E+00  0.1600E-01  0.1600E-01
     -7.290  0.0000E+00  0.0000E+00  0.1600E-01  0.1600E-01
     -7.163  0.0000E+00  0.0000E+00  0.1600E-01  0.1600E-01
     -7.037  0.0000E+00  0.0000E+00  0.1600E-01  0.1600E-01
     -6.910  0.0000E+00  0.0000E+00  0.1600E-01  0.1600E-01
     -6.784  0.0000E+00  0.0000E+00  0.1600E-01  0.1600E-01
     -6.658  0.0000E+00  0.0000E+00  0.1600E-01  0.1600E-01
     -6.531  0.0000E+00  0.0000E+00  0.1600E-01  0.1600E-01
     -6.405  0.0000E+00  0.0000E+00  0.1600E-01  0.1600E-01
     -6.278  0.0000E+00  0.0000E+00  0.1600E-01  0.1600E-01
     -6.152  0.0000E+00  0.0000E+00  0.1600E-01  0.1600E-01
     -6.026  0.0000E+00  0.0000E+00  0.1600E-01  0.1600E-01
     -5.899  0.0000E+00  0.0000E+00  0.1600E-01  0.1600E-01
     -5.773  0.0000E+00  0.0000E+00  0.1600E-01  0.1600E-01
     -5.646  0.0000E+00  0.0000E+00  0.1600E-01  0.1600E-01
     -5.520  0.0000E+00  0.0000E+00  0.1600E-01  0.1600E-01
     -5.393  0.0000E+00  0.0000E+00  0.1600E-01  0.1600E-01
     -5.267  0.0000E+00  0.0000E+00  0.1600E-01  0.1600E-01
     -5.141  0.0000E+00  0.0000E+00  0.1600E-01  0.1600E-01
     -5.014  0.0000E+00  0.0000E+00  0.1600E-01  0.1600E-01
     -4.888  0.0000E+00  0.0000E+00  0.1600E-01  0.1600E-01
     -4.761  0.0000E+00  0.0000E+00  0.1600E-01  0.1600E-01
     -4.635  0.0000E+00  0.0000E+00  0.1600E-01  0.1600E-01
     -4.509  0.0000E+00  0.0000E+00  0.1600E-01  0.1600E-01
     -4.382  0.0000E+00  0.0000E+00  0.1600E-01  0.1600E-01
     -4.256  0.0000E+00  0.0000E+00  0.1600E-01  0.1600E-01
     -4.129  0.0000E+00  0.0000E+00  0.1600E-01  0.1600E-01
     -4.003  0.0000E+00  0.0000E+00  0.1600E-01  0.1600E-01
     -3.876  0.0000E+00  0.0000E+00  0.1600E-01  0.1600E-01
     -3.750  0.0000E+00  0.0000E+00  0.1600E-01  0.1600E-01
     -3.624  0.5121E-20  0.5121E-20  0.1600E-01  0.1600E-01
     -3.497  0.5537E-06  0.5537E-06  0.1600E-01  0.1600E-01
     -3.371  0.1248E-03  0.1248E-03  0.1602E-01  0.1602E-01
     -3.244  0.1981E-02  0.1981E-02  0.1627E-01  0.1627E-01
     -3.118  0.2764E-02  0.2764E-02  0.1662E-01  0.1662E-01
     -2.991  0.8732E-02  0.8732E-02  0.1772E-01  0.1772E-01
     -2.865  0.1352E-01  0.1352E-01  0.1943E-01  0.1943E-01
     -2.739  0.8710E-02  0.8710E-02  0.2053E-01  0.2053E-01
     -2.612  0.1012E-01  0.1012E-01  0.2181E-01  0.2181E-01
     -2.486  0.7739E-02  0.7739E-02  0.2279E-01  0.2279E-01
     -2.359  0.8327E-02  0.8327E-02  0.2384E-01  0.2384E-01
     -2.233  0.8938E-02  0.8938E-02  0.2497E-01  0.2497E-01
     -2.107  0.7020E-02  0.7020E-02  0.2586E-01  0.2586E-01
     -1.980  0.8305E-02  0.8305E-02  0.2691E-01  0.2691E-01
     -1.854  0.9552E-02  0.9552E-02  0.2811E-01  0.2811E-01
     -1.727  0.6135E-02  0.6135E-02  0.2889E-01  0.2889E-01
     -1.601  0.8155E-02  0.8155E-02  0.2992E-01  0.2992E-01
     -1.474  0.9279E-02  0.9279E-02  0.3109E-01  0.3109E-01
     -1.348  0.7703E-02  0.7703E-02  0.3207E-01  0.3207E-01
     -1.222  0.6312E-02  0.6312E-02  0.3287E-01  0.3287E-01
     -1.095  0.7246E-02  0.7246E-02  0.3378E-01  0.3378E-01
     -0.969  0.7907E-02  0.7907E-02  0.3478E-01  0.3478E-01
     -0.842  0.7387E-02  0.7387E-02  0.3571E-01  0.3571E-01
     -0.716  0.8783E-02  0.8783E-02  0.3683E-01  0.3683E-01
     -0.590  0.9382E-02  0.9382E-02  0.3801E-01  0.3801E-01
     -0.463  0.1086E-01  0.1086E-01  0.3938E-01  0.3938E-01
     -0.337  0.9047E-02  0.9047E-02  0.4053E-01  0.4053E-01
     -0.210  0.9177E-02  0.9177E-02  0.4169E-01  0.4169E-01
     -0.084  0.8885E-02  0.8885E-02  0.4281E-01  0.4281E-01
      0.043  0.9569E-02  0.9569E-02  0.4402E-01  0.4402E-01
      0.169  0.1013E-01  0.1013E-01  0.4530E-01  0.4530E-01
      0.295  0.8594E-02  0.8594E-02  0.4639E-01  0.4639E-01
      0.422  0.9668E-02  0.9668E-02  0.4761E-01  0.4761E-01
      0.548  0.1058E-01  0.1058E-01  0.4895E-01  0.4895E-01
      0.675  0.1024E-01  0.1024E-01  0.5024E-01  0.5024E-01
      0.801  0.1100E-01  0.1100E-01  0.5163E-01  0.5163E-01
      0.928  0.9849E-02  0.9849E-02  0.5288E-01  0.5288E-01
      1.054  0.1063E-01  0.1063E-01  0.5422E-01  0.5422E-01
      1.180  0.1048E-01  0.1048E-01  0.5555E-01  0.5555E-01
      1.307  0.7917E-02  0.7917E-02  0.5655E-01  0.5655E-01
      1.433  0.8754E-02  0.8754E-02  0.5765E-01  0.5765E-01
      1.560  0.9640E-02  0.9640E-02  0.5887E-01  0.5887E-01
      1.686  0.1084E-01  0.1084E-01  0.6024E-01  0.6024E-01
      1.812  0.9017E-02  0.9017E-02  0.6138E-01  0.6138E-01
      1.939  0.7018E-02  0.7018E-02  0.6227E-01  0.6227E-01
      2.065  0.4206E-02  0.4206E-02  0.6280E-01  0.6280E-01
      2.192  0.3911E-02  0.3911E-02  0.6329E-01  0.6329E-01
      2.318  0.2035E-02  0.2035E-02  0.6355E-01  0.6355E-01
      2.445  0.1978E-02  0.1978E-02  0.6380E-01  0.6380E-01
      2.571  0.1312E-02  0.1312E-02  0.6397E-01  0.6397E-01
      2.697  0.2519E-03  0.2519E-03  0.6400E-01  0.6400E-01
      2.824  0.1574E-03  0.1574E-03  0.6402E-01  0.6402E-01
      2.950  0.1014E-02  0.1014E-02  0.6415E-01  0.6415E-01
      3.077  0.4095E-02  0.4095E-02  0.6467E-01  0.6467E-01
      3.203  0.3158E-02  0.3158E-02  0.6507E-01  0.6507E-01
      3.330  0.5938E-02  0.5938E-02  0.6582E-01  0.6582E-01
      3.456  0.7112E-02  0.7112E-02  0.6672E-01  0.6672E-01
      3.582  0.8561E-02  0.8561E-02  0.6780E-01  0.6780E-01
      3.709  0.2068E-02  0.2068E-02  0.6806E-01  0.6806E-01
      3.835  0.1183E-02  0.1183E-02  0.6821E-01  0.6821E-01
      3.962  0.1528E-02  0.1528E-02  0.6840E-01  0.6840E-01
      4.088  0.5090E-02  0.5090E-02  0.6904E-01  0.6904E-01
      4.214  0.5288E-02  0.5288E-02  0.6971E-01  0.6971E-01
      4.341  0.4848E-02  0.4848E-02  0.7033E-01  0.7033E-01
      4.467  0.6538E-02  0.6538E-02  0.7115E-01  0.7115E-01
      4.594  0.3681E-02  0.3681E-02  0.7162E-01  0.7162E-01
      4.720  0.2933E-02  0.2933E-02  0.7199E-01  0.7199E-01
      4.847  0.1167E-02  0.1167E-02  0.7214E-01  0.7214E-01
      4.973  0.2370E-02  0.2370E-02  0.7244E-01  0.7244E-01
      5.099  0.2635E-02  0.2635E-02  0.7277E-01  0.7277E-01
      5.226  0.2601E-02  0.2601E-02  0.7310E-01  0.7310E-01
      5.352  0.4147E-02  0.4147E-02  0.7362E-01  0.7362E-01
      5.479  0.6054E-02  0.6054E-02  0.7439E-01  0.7439E-01
      5.605  0.9037E-02  0.9037E-02  0.7553E-01  0.7553E-01
      5.731  0.6480E-02  0.6480E-02  0.7635E-01  0.7635E-01
      5.858  0.6568E-02  0.6568E-02  0.7718E-01  0.7718E-01
      5.984  0.7706E-02  0.7706E-02  0.7815E-01  0.7815E-01
      6.111  0.7851E-02  0.7851E-02  0.7915E-01  0.7915E-01
      6.237  0.9391E-02  0.9391E-02  0.8033E-01  0.8033E-01
      6.364  0.6136E-02  0.6136E-02  0.8111E-01  0.8111E-01
      6.490  0.6540E-02  0.6540E-02  0.8194E-01  0.8194E-01
      6.616  0.5709E-02  0.5709E-02  0.8266E-01  0.8266E-01
      6.743  0.2477E-02  0.2477E-02  0.8297E-01  0.8297E-01
      6.869  0.4313E-02  0.4313E-02  0.8352E-01  0.8352E-01
      6.996  0.5996E-02  0.5996E-02  0.8427E-01  0.8427E-01
      7.122  0.5961E-02  0.5961E-02  0.8503E-01  0.8503E-01
      7.249  0.5001E-02  0.5001E-02  0.8566E-01  0.8566E-01
      7.375  0.3772E-02  0.3772E-02  0.8614E-01  0.8614E-01
      7.501  0.3864E-02  0.3864E-02  0.8663E-01  0.8663E-01
      7.628  0.4104E-02  0.4104E-02  0.8714E-01  0.8714E-01
      7.754  0.6111E-02  0.6111E-02  0.8792E-01  0.8792E-01
      7.881  0.6199E-02  0.6199E-02  0.8870E-01  0.8870E-01
      8.007  0.5732E-02  0.5732E-02  0.8942E-01  0.8942E-01
      8.133  0.5630E-02  0.5630E-02  0.9014E-01  0.9014E-01
      8.260  0.5929E-02  0.5929E-02  0.9089E-01  0.9089E-01
      8.386  0.4439E-02  0.4439E-02  0.9145E-01  0.9145E-01
      8.513  0.4288E-02  0.4288E-02  0.9199E-01  0.9199E-01
      8.639  0.2372E-02  0.2372E-02  0.9229E-01  0.9229E-01
      8.766  0.3645E-02  0.3645E-02  0.9275E-01  0.9275E-01
      8.892  0.5684E-02  0.5684E-02  0.9347E-01  0.9347E-01
      9.018  0.5417E-02  0.5417E-02  0.9415E-01  0.9415E-01
      9.145  0.6916E-02  0.6916E-02  0.9503E-01  0.9503E-01
      9.271  0.6781E-02  0.6781E-02  0.9589E-01  0.9589E-01
      9.398  0.7184E-02  0.7184E-02  0.9679E-01  0.9679E-01
      9.524  0.7903E-02  0.7903E-02  0.9779E-01  0.9779E-01
      9.650  0.4022E-02  0.4022E-02  0.9830E-01  0.9830E-01
      9.777  0.2723E-02  0.2723E-02  0.9865E-01  0.9865E-01
      9.903  0.3770E-02  0.3770E-02  0.9912E-01  0.9912E-01
     10.030  0.2781E-02  0.2781E-02  0.9947E-01  0.9947E-01
     10.156  0.2376E-02  0.2376E-02  0.9977E-01  0.9977E-01
     10.283  0.3029E-02  0.3029E-02  0.1002E+00  0.1002E+00
     10.409  0.3889E-02  0.3889E-02  0.1006E+00  0.1006E+00
     10.535  0.3775E-02  0.3775E-02  0.1011E+00  0.1011E+00
     10.662  0.3740E-02  0.3740E-02  0.1016E+00  0.1016E+00
     10.788  0.2441E-02  0.2441E-02  0.1019E+00  0.1019E+00
     10.915  0.3502E-02  0.3502E-02  0.1023E+00  0.1023E+00
     11.041  0.3432E-02  0.3432E-02  0.1028E+00  0.1028E+00
     11.168  0.3900E-02  0.3900E-02  0.1033E+00  0.1033E+00
     11.294  0.4867E-02  0.4867E-02  0.1039E+00  0.1039E+00
     11.420  0.2860E-02  0.2860E-02  0.1043E+00  0.1043E+00
     11.547  0.1452E-02  0.1452E-02  0.1044E+00  0.1044E+00
     11.673  0.2036E-03  0.2036E-03  0.1045E+00  0.1045E+00
     11.800  0.9792E-03  0.9792E-03  0.1046E+00  0.1046E+00
     11.926  0.9012E-03  0.9012E-03  0.1047E+00  0.1047E+00
     12.052  0.8719E-03  0.8719E-03  0.1048E+00  0.1048E+00
     12.179  0.9346E-03  0.9346E-03  0.1049E+00  0.1049E+00
     12.305  0.3592E-03  0.3592E-03  0.1050E+00  0.1050E+00
     12.432  0.6821E-03  0.6821E-03  0.1051E+00  0.1051E+00
     12.558  0.1409E-02  0.1409E-02  0.1052E+00  0.1052E+00
     12.685  0.1447E-02  0.1447E-02  0.1054E+00  0.1054E+00
     12.811  0.1296E-02  0.1296E-02  0.1056E+00  0.1056E+00
     12.937  0.7070E-03  0.7070E-03  0.1057E+00  0.1057E+00
     13.064  0.1304E-02  0.1304E-02  0.1058E+00  0.1058E+00
     13.190  0.2021E-02  0.2021E-02  0.1061E+00  0.1061E+00
     13.317  0.8239E-03  0.8214E-03  0.1062E+00  0.1062E+00
     13.443  0.1857E-02  0.1785E-02  0.1064E+00  0.1064E+00
     13.569  0.1749E-02  0.1884E-02  0.1067E+00  0.1067E+00
     13.696  0.3166E-02  0.3197E-02  0.1071E+00  0.1071E+00
     13.822  0.2040E-02  0.2046E-02  0.1073E+00  0.1073E+00
     13.949  0.3161E-02  0.3156E-02  0.1077E+00  0.1077E+00
     14.075  0.1260E-02  0.1334E-02  0.1079E+00  0.1079E+00
     14.202  0.2445E-02  0.2373E-02  0.1082E+00  0.1082E+00
     14.328  0.2947E-02  0.2878E-02  0.1086E+00  0.1086E+00
     14.454  0.6194E-02  0.6118E-02  0.1093E+00  0.1093E+00
     14.581  0.3612E-02  0.3594E-02  0.1098E+00  0.1098E+00
     14.707  0.9453E-03  0.1311E-02  0.1099E+00  0.1100E+00
     14.834  0.2435E-02  0.2213E-02  0.1102E+00  0.1102E+00
     14.960  0.2169E-02  0.2094E-02  0.1105E+00  0.1105E+00
     15.087  0.2038E-02  0.1755E-02  0.1108E+00  0.1107E+00
     15.213  0.1193E-02  0.1486E-02  0.1109E+00  0.1109E+00
     15.339  0.1857E-02  0.1698E-02  0.1111E+00  0.1111E+00
     15.466  0.1752E-02  0.1466E-02  0.1114E+00  0.1113E+00
     15.592  0.7057E-03  0.8937E-03  0.1114E+00  0.1114E+00
     15.719  0.4424E-03  0.7401E-03  0.1115E+00  0.1115E+00
     15.845  0.4087E-03  0.8641E-03  0.1116E+00  0.1116E+00
     15.971  0.6577E-03  0.3487E-03  0.1116E+00  0.1117E+00
     16.098  0.2006E-03  0.5483E-03  0.1117E+00  0.1117E+00
     16.224  0.5730E-03  0.5503E-03  0.1117E+00  0.1118E+00
     16.351  0.2191E-03  0.2541E-03  0.1118E+00  0.1118E+00
     16.477  0.4221E-03  0.1940E-03  0.1118E+00  0.1119E+00
     16.604  0.1890E-03  0.2486E-03  0.1118E+00  0.1119E+00
     16.730  0.9280E-04  0.1188E-03  0.1119E+00  0.1119E+00
     16.856  0.2144E-03  0.8854E-04  0.1119E+00  0.1119E+00
     16.983  0.1080E-03  0.9293E-04  0.1119E+00  0.1119E+00
     17.109  0.8371E-04  0.1001E-03  0.1119E+00  0.1119E+00
     17.236  0.1418E-04  0.1116E-03  0.1119E+00  0.1120E+00
     17.362  0.1796E-03  0.6798E-04  0.1119E+00  0.1120E+00
     17.489  0.1435E-03  0.4639E-11  0.1119E+00  0.1120E+00
     17.615  0.1335E-03  0.0000E+00  0.1120E+00  0.1120E+00
     17.741  0.8870E-05  0.5384E-14  0.1120E+00  0.1120E+00
     17.868  0.8338E-04  0.4337E-04  0.1120E+00  0.1120E+00
     17.994  0.1490E-09  0.1411E-03  0.1120E+00  0.1120E+00
     18.121  0.3897E-04  0.3341E-10  0.1120E+00  0.1120E+00
     18.247  0.5328E-04  0.0000E+00  0.1120E+00  0.1120E+00
     18.373  0.0000E+00  0.0000E+00  0.1120E+00  0.1120E+00
     18.500  0.3175E-17  0.0000E+00  0.1120E+00  0.1120E+00
     18.626  0.5806E-05  0.0000E+00  0.1120E+00  0.1120E+00
     18.753  0.8644E-04  0.0000E+00  0.1120E+00  0.1120E+00
     18.879  0.4368E-09  0.2048E-19  0.1120E+00  0.1120E+00
     19.006  0.0000E+00  0.1394E-05  0.1120E+00  0.1120E+00
     19.132  0.0000E+00  0.9085E-04  0.1120E+00  0.1120E+00
     19.258  0.0000E+00  0.6882E-08  0.1120E+00  0.1120E+00
     19.385  0.0000E+00  0.0000E+00  0.1120E+00  0.1120E+00
     19.511  0.0000E+00  0.0000E+00  0.1120E+00  0.1120E+00
     19.638  0.0000E+00  0.0000E+00  0.1120E+00  0.1120E+00
     19.764  0.0000E+00  0.0000E+00  0.1120E+00  0.1120E+00
     19.890  0.0000E+00  0.0000E+00  0.1120E+00  0.1120E+00
     20.017  0.0000E+00  0.0000E+00  0.1120E+00  0.1120E+00
     20.143  0.0000E+00  0.0000E+00  0.1120E+00  0.1120E+00
     20.270  0.0000E+00  0.0000E+00  0.1120E+00  0.1120E+00
     20.396  0.0000E+00  0.0000E+00  0.1120E+00  0.1120E+00
     20.523  0.0000E+00  0.0000E+00  0.1120E+00  0.1120E+00
     20.649  0.0000E+00  0.0000E+00  0.1120E+00  0.1120E+00
     20.775  0.0000E+00  0.0000E+00  0.1120E+00  0.1120E+00
