 running on   64 total cores
 distrk:  each k-point on   64 cores,    1 groups
 distr:  one band on    8 cores,    8 groups
 using from now: INCAR     
 vasp.5.4.1 05Feb16 (build Apr 23 2022 14:15:44) complex                        
  
 POSCAR found type information on POSCAR  Mo O 
 POSCAR found :  2 types and      12 ions
 scaLAPACK will be used
 LDA part: xc-table for Pade appr. of Perdew
 POSCAR found type information on POSCAR  Mo O 
 POSCAR found :  2 types and      12 ions
 POSCAR, INCAR and KPOINTS ok, starting setup
 WARNING: small aliasing (wrap around) errors must be expected
 FFT: planning ...
 WAVECAR not read
 WARNING: random wavefunctions but no delay for mixing, default for NELMDL
 entering main loop
       N       E                     dE             d eps       ncg     rms          rms(c)
RMM:   1     0.880264280030E+03    0.88026E+03   -0.29383E+04 19264   0.115E+03
RMM:   2     0.166001960229E+03   -0.71426E+03   -0.71033E+03 19264   0.295E+02
RMM:   3    -0.421875242671E+02   -0.20819E+03   -0.18681E+03 19264   0.143E+02
RMM:   4    -0.104348413725E+03   -0.62161E+02   -0.45121E+02 19264   0.803E+01
RMM:   5    -0.118948071801E+03   -0.14600E+02   -0.10785E+02 19264   0.372E+01
RMM:   6    -0.122420722090E+03   -0.34727E+01   -0.27661E+01 19264   0.183E+01
RMM:   7    -0.123353476259E+03   -0.93275E+00   -0.79179E+00 19264   0.885E+00
RMM:   8    -0.123635133453E+03   -0.28166E+00   -0.24432E+00 19264   0.456E+00
RMM:   9    -0.123762924806E+03   -0.12779E+00   -0.11900E+00 38981   0.232E+00
RMM:  10    -0.123772349449E+03   -0.94246E-02   -0.13164E-01 39352   0.559E-01
RMM:  11    -0.123772115576E+03    0.23387E-03   -0.52352E-03 39414   0.139E-01
RMM:  12    -0.123772129717E+03   -0.14141E-04   -0.41340E-04 36515   0.297E-02    0.823E+01
RMM:  13    -0.107870196172E+03    0.15902E+02   -0.71851E+01 38528   0.284E+01    0.249E+01
RMM:  14    -0.106339745716E+03    0.15305E+01   -0.67047E+00 38528   0.974E+00    0.208E+01
RMM:  15    -0.105855803504E+03    0.48394E+00   -0.11225E+00 38528   0.355E+00    0.252E+00
RMM:  16    -0.105823071382E+03    0.32732E-01   -0.82648E-02 38528   0.996E-01    0.348E-01
RMM:  17    -0.105821543757E+03    0.15276E-02   -0.51802E-03 38528   0.270E-01    0.251E-01
RMM:  18    -0.105821745524E+03   -0.20177E-03   -0.24031E-03 38528   0.191E-01    0.138E-01
RMM:  19    -0.105821733329E+03    0.12196E-04   -0.21322E-04 38528   0.581E-02    0.346E-02
RMM:  20    -0.105821763118E+03   -0.29789E-04   -0.25400E-05 38528   0.213E-02    0.216E-02
RMM:  21    -0.105821775561E+03   -0.12443E-04   -0.16004E-05 38332   0.165E-02    0.135E-02
RMM:  22    -0.105821780805E+03   -0.52444E-05   -0.71689E-06 35737   0.116E-02    0.553E-03
RMM:  23    -0.105821780741E+03    0.63677E-07   -0.74651E-07 24000   0.360E-03
   1 F= -.10879168E+03 E0= -.10879126E+03  d E =-.108792E+03  mag=     0.0001
 curvature:   0.00 expect dE= 0.000E+00 dE for cont linesearch  0.000E+00
 trial: gam= 0.00000 g(F)=  0.451E-03 g(S)=  0.212E-03 ort = 0.000E+00 (trialstep = 0.100E+01)
 search vector abs. value=  0.664E-03
 bond charge predicted
       N       E                     dE             d eps       ncg     rms          rms(c)
RMM:   1    -0.105821244390E+03    0.53641E-03   -0.88665E-02 38528   0.109E+00    0.143E-01
RMM:   2    -0.105821076214E+03    0.16818E-03   -0.41160E-04 38528   0.752E-02    0.869E-02
RMM:   3    -0.105821003689E+03    0.72525E-04   -0.11091E-04 38528   0.406E-02    0.242E-02
RMM:   4    -0.105820997943E+03    0.57465E-05   -0.14738E-05 38528   0.135E-02    0.892E-03
RMM:   5    -0.105820997867E+03    0.75897E-07   -0.13353E-06 24605   0.458E-03
   2 F= -.10879182E+03 E0= -.10879140E+03  d E =-.142820E-03  mag=     0.0000
 trial-energy change:   -0.000143  1 .order   -0.000148   -0.000664    0.000367
 step:   0.6365(harm=  0.6438)  dis= 0.00140  next Energy=  -108.791891 (dE=-0.210E-03)
 bond charge predicted
       N       E                     dE             d eps       ncg     rms          rms(c)
RMM:   1    -0.105821433855E+03   -0.43591E-03   -0.11728E-02 38528   0.395E-01    0.518E-02
RMM:   2    -0.105821412213E+03    0.21641E-04   -0.54032E-05 38528   0.273E-02    0.316E-02
RMM:   3    -0.105821404154E+03    0.80588E-05   -0.14023E-05 38528   0.142E-02    0.107E-02
RMM:   4    -0.105821402671E+03    0.14833E-05   -0.25821E-06 28312   0.560E-03    0.507E-03
RMM:   5    -0.105821402342E+03    0.32906E-06   -0.38375E-07 22079   0.239E-03
   3 F= -.10879189E+03 E0= -.10879147E+03  d E =-.210471E-03  mag=    -0.0000
 curvature:  -0.32 expect dE=-0.861E-04 dE for cont linesearch -0.189E-08
 trial: gam= 0.40046 g(F)=  0.151E-03 g(S)=  0.117E-03 ort = 0.197E-05 (trialstep = 0.927E+00)
 search vector abs. value=  0.376E-03
 bond charge predicted
       N       E                     dE             d eps       ncg     rms          rms(c)
RMM:   1    -0.105820365927E+03    0.10367E-02   -0.35326E-02 38528   0.805E-01    0.129E-01
RMM:   2    -0.105820244437E+03    0.12149E-03   -0.29313E-04 38528   0.664E-02    0.929E-02
RMM:   3    -0.105820208046E+03    0.36391E-04   -0.29611E-05 38528   0.201E-02    0.352E-02
RMM:   4    -0.105820197109E+03    0.10937E-04   -0.25587E-05 38528   0.199E-02    0.518E-03
RMM:   5    -0.105820197174E+03   -0.64843E-07   -0.47251E-07 24002   0.258E-03
   4 F= -.10879203E+03 E0= -.10879162E+03  d E =-.141918E-03  mag=     0.0000
 trial-energy change:   -0.000142  1 .order   -0.000136   -0.000249   -0.000023
 step:   1.0081(harm=  1.0218)  dis= 0.00087  next Energy=  -108.792035 (dE=-0.143E-03)
 bond charge predicted
       N       E                     dE             d eps       ncg     rms          rms(c)
RMM:   1    -0.105820082571E+03    0.11454E-03   -0.27212E-04 38528   0.705E-02    0.122E-02
RMM:   2    -0.105820081810E+03    0.76167E-06   -0.21016E-06 26954   0.581E-03
   5 F= -.10879204E+03 E0= -.10879162E+03  d E =-.144036E-03  mag=    -0.0000
 curvature:  -0.70 expect dE=-0.117E-03 dE for cont linesearch -0.736E-06
 trial: gam= 0.55065 g(F)=  0.941E-05 g(S)=  0.158E-03 ort = 0.199E-04 (trialstep = 0.943E+00)
 search vector abs. value=  0.304E-03
 bond charge predicted
       N       E                     dE             d eps       ncg     rms          rms(c)
RMM:   1    -0.105823332942E+03   -0.32504E-02   -0.28873E-02 38528   0.773E-01    0.202E-01
RMM:   2    -0.105823041223E+03    0.29172E-03   -0.68342E-04 38528   0.982E-02    0.150E-01
RMM:   3    -0.105822973151E+03    0.68072E-04   -0.52673E-05 38528   0.250E-02    0.603E-02
RMM:   4    -0.105822949783E+03    0.23368E-04   -0.59184E-05 38528   0.298E-02    0.614E-03
RMM:   5    -0.105822949022E+03    0.76077E-06   -0.88127E-07 24397   0.380E-03
   6 F= -.10879205E+03 E0= -.10879164E+03  d E =-.149438E-04  mag=     0.0000
 trial-energy change:   -0.000015  1 .order   -0.000020   -0.000169    0.000129
 step:   0.5112(harm=  0.5355)  dis= 0.00024  next Energy=  -108.792081 (dE=-0.449E-04)
 bond charge predicted
       N       E                     dE             d eps       ncg     rms          rms(c)
RMM:   1    -0.105821743248E+03    0.12065E-02   -0.60115E-03 38528   0.353E-01    0.912E-02
RMM:   2    -0.105821687255E+03    0.55994E-04   -0.14502E-04 38528   0.452E-02    0.684E-02
RMM:   3    -0.105821673304E+03    0.13950E-04   -0.10661E-05 38082   0.112E-02    0.278E-02
RMM:   4    -0.105821670068E+03    0.32359E-05   -0.11821E-05 38528   0.133E-02    0.260E-03
RMM:   5    -0.105821670248E+03   -0.17908E-06   -0.17368E-07 20339   0.169E-03
   7 F= -.10879208E+03 E0= -.10879166E+03  d E =-.423904E-04  mag=    -0.0000
 curvature:  -0.45 expect dE=-0.826E-05 dE for cont linesearch -0.247E-06
 trial: gam= 0.01933 g(F)=  0.138E-04 g(S)=  0.443E-05 ort = 0.129E-04 (trialstep = 0.857E+00)
 search vector abs. value=  0.188E-04
 reached required accuracy - stopping structural energy minimisation
