 vasp.5.4.1 05Feb16 (build Apr 23 2022 14:15:44) complex                        
  
 executed on           IFC91_ompi date 2024.11.30  11:15:08
 running on   64 total cores
 distrk:  each k-point on   64 cores,    1 groups
 distr:  one band on NCORES_PER_BAND=   8 cores,    8 groups


--------------------------------------------------------------------------------------------------------


 INCAR:
 POTCAR:    PAW_PBE Li 17Jan2003                  
 POTCAR:    PAW_PBE V 08Apr2002                   
 POTCAR:    PAW_PBE O 08Apr2002                   
 POTCAR:    PAW_PBE Li 17Jan2003                  
   VRHFIN =Li: s1p0                                                             
   LEXCH  = PE                                                                  
   EATOM  =     5.3001 eV,    0.3895 Ry                                         
                                                                                
   TITEL  = PAW_PBE Li 17Jan2003                                                
   LULTRA =        F    use ultrasoft PP ?                                      
   IUNSCR =        1    unscreen: 0-lin 1-nonlin 2-no                           
   RPACOR =    1.500    partial core radius                                     
   POMASS =    7.010; ZVAL   =    1.000    mass and valenz                      
   RCORE  =    2.050    outmost cutoff radius                                   
   RWIGS  =    2.600; RWIGS  =    1.376    wigner-seitz radius (au A)           
   ENMAX  =  140.000; ENMIN  =  100.000 eV                                      
   ICORE  =        2    local potential                                         
   LCOR   =        T    correct aug charges                                     
   LPAW   =        T    paw PP                                                  
   EAUG   =  331.638                                                            
   DEXC   =    0.000                                                            
   RMAX   =    2.098    core radius for proj-oper                               
   RAUG   =    1.300    factor for augmentation sphere                          
   RDEP   =    2.094    radius for radial grids                                 
   RDEPT  =    1.810    core radius for aug-charge                              
                                                                                
   Atomic configuration                                                         
    4 entries                                                                   
     n  l   j            E        occ.                                          
     1  0  0.50       -51.8549   2.0000                                         
     2  0  0.50        -2.8742   1.0000                                         
     2  1  0.50        -1.3606   0.0000                                         
     3  2  1.50        -1.3606   0.0000                                         
   Description                                                                  
     l       E           TYP  RCUT    TYP  RCUT                                 
     0     -2.8742052     23  2.050                                             
     0     27.2116520     23  2.050                                             
     1     -1.3605826     23  2.050                                             
     2     -1.3605826     23  2.050                                             
  local pseudopotential read in
  partial core-charges read in
  partial kinetic energy density read in
  atomic valenz-charges read in
  non local Contribution for L=           0  read in
    real space projection operators read in
  non local Contribution for L=           0  read in
    real space projection operators read in
  non local Contribution for L=           1  read in
    real space projection operators read in
    PAW grid and wavefunctions read in
 
   number of l-projection  operators is LMAX  =           3
   number of lm-projection operators is LMMAX =           5
 
 POTCAR:    PAW_PBE V 08Apr2002                   
   VRHFIN =V: p6 d4 s1                                                          
   LEXCH  = PE                                                                  
   EATOM  =   170.8679 eV,   12.5584 Ry                                         
                                                                                
   TITEL  = PAW_PBE V 08Apr2002                                                 
   LULTRA =        F    use ultrasoft PP ?                                      
   IUNSCR =        1    unscreen: 0-lin 1-nonlin 2-no                           
   RPACOR =    2.000    partial core radius                                     
   POMASS =   50.941; ZVAL   =    5.000    mass and valenz                      
   RCORE  =    2.700    outmost cutoff radius                                   
   RWIGS  =    2.500; RWIGS  =    1.323    wigner-seitz radius (au A)           
   ENMAX  =  192.543; ENMIN  =  144.408 eV                                      
   RCLOC  =    1.779    cutoff for local pot                                    
   LCOR   =        T    correct aug charges                                     
   LPAW   =        T    paw PP                                                  
   EAUG   =  358.662                                                            
   DEXC   =    0.000                                                            
   RMAX   =    2.768    core radius for proj-oper                               
   RAUG   =    1.300    factor for augmentation sphere                          
   RDEP   =    2.762    radius for radial grids                                 
   RDEPT  =    2.240    core radius for aug-charge                              
                                                                                
   Atomic configuration                                                         
    9 entries                                                                   
     n  l   j            E        occ.                                          
     1  0  0.50     -5360.7193   2.0000                                         
     2  0  0.50      -598.4546   2.0000                                         
     2  1  1.50      -499.0155   6.0000                                         
     3  0  0.50       -66.5711   2.0000                                         
     3  1  1.50       -40.5282   6.0000                                         
     3  2  2.50        -2.4291   4.0000                                         
     4  0  0.50        -3.8743   1.0000                                         
     4  1  0.50        -2.7212   0.0000                                         
     4  3  2.50        -1.3606   0.0000                                         
   Description                                                                  
     l       E           TYP  RCUT    TYP  RCUT                                 
     2     -2.4290901     23  2.700                                             
     2     -3.7896727     23  2.700                                             
     0     -3.8742752     23  2.700                                             
     0     27.2116520     23  2.700                                             
     1     -2.7211652     23  2.700                                             
     1     27.2116520     23  2.700                                             
  local pseudopotential read in
  partial core-charges read in
  partial kinetic energy density read in
  atomic valenz-charges read in
  non local Contribution for L=           2  read in
    real space projection operators read in
  non local Contribution for L=           2  read in
    real space projection operators read in
  non local Contribution for L=           0  read in
    real space projection operators read in
  non local Contribution for L=           0  read in
    real space projection operators read in
  non local Contribution for L=           1  read in
    real space projection operators read in
  non local Contribution for L=           1  read in
    real space projection operators read in
    PAW grid and wavefunctions read in
 
   number of l-projection  operators is LMAX  =           6
   number of lm-projection operators is LMMAX =          18
 
 POTCAR:    PAW_PBE O 08Apr2002                   
   VRHFIN =O: s2p4                                                              
   LEXCH  = PE                                                                  
   EATOM  =   432.3788 eV,   31.7789 Ry                                         
                                                                                
   TITEL  = PAW_PBE O 08Apr2002                                                 
   LULTRA =        F    use ultrasoft PP ?                                      
   IUNSCR =        1    unscreen: 0-lin 1-nonlin 2-no                           
   RPACOR =    1.200    partial core radius                                     
   POMASS =   16.000; ZVAL   =    6.000    mass and valenz                      
   RCORE  =    1.520    outmost cutoff radius                                   
   RWIGS  =    1.550; RWIGS  =    0.820    wigner-seitz radius (au A)           
   ENMAX  =  400.000; ENMIN  =  300.000 eV                                      
   ICORE  =        2    local potential                                         
   LCOR   =        T    correct aug charges                                     
   LPAW   =        T    paw PP                                                  
   EAUG   =  605.392                                                            
   DEXC   =    0.000                                                            
   RMAX   =    1.553    core radius for proj-oper                               
   RAUG   =    1.300    factor for augmentation sphere                          
   RDEP   =    1.550    radius for radial grids                                 
   RDEPT  =    1.329    core radius for aug-charge                              
                                                                                
   Atomic configuration                                                         
    4 entries                                                                   
     n  l   j            E        occ.                                          
     1  0  0.50      -514.6923   2.0000                                         
     2  0  0.50       -23.9615   2.0000                                         
     2  1  0.50        -9.0305   4.0000                                         
     3  2  1.50        -9.5241   0.0000                                         
   Description                                                                  
     l       E           TYP  RCUT    TYP  RCUT                                 
     0    -23.9615318     23  1.200                                             
     0     -9.5240782     23  1.200                                             
     1     -9.0304911     23  1.520                                             
     1      8.1634956     23  1.520                                             
     2     -9.5240782      7  1.500                                             
  local pseudopotential read in
  partial core-charges read in
  partial kinetic energy density read in
  kinetic energy density of atom read in
  atomic valenz-charges read in
  non local Contribution for L=           0  read in
    real space projection operators read in
  non local Contribution for L=           0  read in
    real space projection operators read in
  non local Contribution for L=           1  read in
    real space projection operators read in
  non local Contribution for L=           1  read in
    real space projection operators read in
    PAW grid and wavefunctions read in
 
   number of l-projection  operators is LMAX  =           4
   number of lm-projection operators is LMMAX =           8
 
 Optimization of the real space projectors (new method)

 maximal supplied QI-value         = 18.33
 optimisation between [QCUT,QGAM] = [ 12.46, 24.93] = [ 43.51,174.03] Ry 
 Optimized for a Real-space Cutoff    1.13 Angstroem

   l    n(q)    QCUT    max X(q) W(low)/X(q) W(high)/X(q)  e(spline) 
   0      8    12.465    33.825    0.12E-03    0.29E-03    0.99E-07
   0      8    12.465     8.944    0.86E-04    0.22E-03    0.72E-07
   1      8    12.465     4.214    0.27E-03    0.11E-03    0.82E-07
 Optimization of the real space projectors (new method)

 maximal supplied QI-value         = 13.98
 optimisation between [QCUT,QGAM] = [ 12.45, 25.03] = [ 43.38,175.46] Ry 
 Optimized for a Real-space Cutoff    1.56 Angstroem

   l    n(q)    QCUT    max X(q) W(low)/X(q) W(high)/X(q)  e(spline) 
   2     11    12.446    96.114    0.19E-03    0.47E-04    0.85E-06
   2     11    12.446    88.986    0.19E-03    0.46E-04    0.86E-06
   0     12    12.446    20.919    0.37E-04    0.64E-04    0.43E-06
   0     12    12.446     9.593    0.25E-04    0.48E-04    0.33E-06
   1     11    12.446    11.615    0.75E-04    0.30E-04    0.59E-06
   1     11    12.446     7.031    0.53E-04    0.23E-04    0.40E-06
 Optimization of the real space projectors (new method)

 maximal supplied QI-value         = 24.76
 optimisation between [QCUT,QGAM] = [ 12.38, 25.00] = [ 42.90,175.06] Ry 
 Optimized for a Real-space Cutoff    1.13 Angstroem

   l    n(q)    QCUT    max X(q) W(low)/X(q) W(high)/X(q)  e(spline) 
   0      8    12.378    20.381    0.16E-03    0.54E-05    0.27E-06
   0      8    12.378    15.268    0.17E-03    0.61E-05    0.29E-06
   1      8    12.378     5.964    0.38E-03    0.23E-03    0.28E-06
   1      8    12.378     5.382    0.33E-03    0.20E-03    0.25E-06
  PAW_PBE Li 17Jan2003                  :
 energy of atom  1       EATOM=   -5.3001
 kinetic energy error for atom=    0.0000 (will be added to EATOM!!)
  PAW_PBE V 08Apr2002                   :
 energy of atom  2       EATOM= -170.8679
 kinetic energy error for atom=    0.0002 (will be added to EATOM!!)
  PAW_PBE O 08Apr2002                   :
 energy of atom  3       EATOM= -432.3788
 kinetic energy error for atom=    0.0168 (will be added to EATOM!!)
 
 
 POSCAR: Li  V  O                                
  positions in cartesian coordinates
  No initial velocities read in
 exchange correlation table for  LEXCH =        8
   RHO(1)=    0.500       N(1)  =     2000
   RHO(2)=  100.500       N(2)  =     4000

 VTST: version 3.1, (03/28/14)

 CHAIN: initializing optimizer
 
 OPT: Using VASP Dynamics algorithm
 CHAIN: Read ICHAIN            0
 
 POSCAR: Li  V  O                                
  positions in cartesian coordinates
  No initial velocities read in
 


--------------------------------------------------------------------------------------------------------


 ion  position               nearest neighbor table
   1  0.009  0.670  0.130-  25 1.92  18 1.93  24 1.94  21 1.96  10 2.97   6 3.02  15 3.02  15 3.07
                             2 3.07   2 3.08   6 3.09   4 3.12   5 3.13  14 3.14   5 3.14  14 3.15
   2  0.509  0.332  0.131-  19 1.94  21 1.95  23 1.95  18 1.97  14 3.02   5 3.03   5 3.05   1 3.07
                             1 3.08   3 3.10  14 3.11   6 3.11  15 3.13  15 3.13   9 3.14   6 3.22
   3  0.509  0.332  0.379-  27 1.94  22 1.95  23 1.95  20 1.97  16 3.02   5 3.03   5 3.05   4 3.07
                             4 3.08   2 3.10  16 3.11  12 3.11  15 3.13  15 3.13   8 3.14  12 3.22
   4  0.009  0.670  0.379-  25 1.92  20 1.93  32 1.94  22 1.96   7 2.97  12 3.02  15 3.02  15 3.07
                             3 3.07   3 3.08  12 3.09   1 3.12   5 3.13  16 3.13   5 3.14  16 3.15
   5  0.011  0.172  0.255-  25 1.97  23 1.97  18 1.99  20 1.99   2 3.03   3 3.03   3 3.05   2 3.05
                            15 3.05  15 3.11   4 3.13   1 3.13  16 3.14  14 3.14   1 3.14   4 3.14
   6  0.519  0.821  0.002-  30 1.95  21 1.97  19 1.98  24 1.99  10 2.92  10 2.95   1 3.02  14 3.03
                             9 3.09   1 3.09  17 3.10   2 3.11   9 3.14  15 3.17  14 3.19   2 3.22
   7  0.022  0.671  0.616-  32 1.87  33 1.91  29 1.96  26 2.00  13 2.24  11 2.91  12 2.92  12 2.95
                             4 2.97   8 2.99  16 3.05  17 3.05  16 3.07   8 3.21  17 3.23
   8  0.494  0.327  0.629-  29 1.93  26 1.95  27 1.96  31 1.96  13 2.44   7 2.99  16 3.02  16 3.05
                            11 3.09  12 3.09  17 3.12   3 3.14  12 3.14   9 3.16  17 3.17   7 3.21
   9  0.494  0.327  0.881-  30 1.93  28 1.95  19 1.96  31 1.96  13 2.44  10 2.99  14 3.02  14 3.05
                            11 3.09   6 3.09  17 3.12   2 3.14   6 3.14   8 3.16  17 3.17  10 3.21
  10  0.022  0.671  0.893-  24 1.87  33 1.91  30 1.96  28 2.00  13 2.24  11 2.91   6 2.92   6 2.95
                             1 2.97   9 2.99  14 3.05  17 3.05  14 3.07   9 3.21  17 3.23
  11  0.017  0.100  0.755-  33 1.85  31 1.96  26 2.04  28 2.04  13 2.21  17 2.78  10 2.91   7 2.91
                            17 2.94   8 3.09   9 3.09  16 3.15  14 3.15   8 3.27   9 3.27
  12  0.519  0.821  0.508-  29 1.95  22 1.97  27 1.97  32 1.99   7 2.92   7 2.95   4 3.02  16 3.02
                             8 3.09   4 3.09  17 3.10   3 3.11   8 3.14  15 3.17  16 3.19   3 3.22
  13  0.836  0.472  0.755-  29 2.04  30 2.05  31 2.05  11 2.21  33 2.22   7 2.24  10 2.24  26 2.27
                            28 2.27   8 2.44   9 2.44  17 2.57
  14  0.998  0.169  0.005-  19 1.73  24 1.73  18 1.74  28 1.75   9 3.02   2 3.02   6 3.03  10 3.05
                             9 3.05  10 3.07   2 3.11   1 3.14   5 3.14   1 3.15  11 3.15   6 3.19
  15  0.503  0.832  0.255-  25 1.73  22 1.74  21 1.74  23 1.74   4 3.02   1 3.02   5 3.05   1 3.07
                             4 3.07   5 3.11   3 3.13   2 3.13   3 3.13   2 3.13  12 3.17   6 3.17
  16  0.998  0.169  0.505-  27 1.73  32 1.73  20 1.74  26 1.75   8 3.02   3 3.02  12 3.02   7 3.05
                             8 3.05   7 3.07   3 3.11   4 3.13   5 3.14   4 3.15  11 3.15  12 3.19
  17  0.499  0.832  0.755-  33 1.81  31 1.82  30 1.84  29 1.84  13 2.57  11 2.78  11 2.94   7 3.05
                            10 3.05  12 3.10   6 3.10   8 3.12   9 3.12   9 3.17   8 3.17  10 3.23
  18  0.110  0.329  0.117-  14 1.74   1 1.93   2 1.97   5 1.99
  19  0.648  0.165  0.006-  14 1.73   2 1.94   9 1.96   6 1.98
  20  0.111  0.329  0.393-  16 1.74   4 1.93   3 1.97   5 1.99
  21  0.613  0.677  0.142-  15 1.74   2 1.95   1 1.96   6 1.97
  22  0.613  0.677  0.368-  15 1.74   3 1.95   4 1.96  12 1.97
  23  0.613  0.135  0.255-  15 1.74   3 1.95   2 1.95   5 1.97
  24  0.118  0.869  0.009-  14 1.73  10 1.87   1 1.94   6 1.99
  25  0.151  0.832  0.255-  15 1.73   4 1.92   1 1.92   5 1.97
  26  0.099  0.311  0.624-  16 1.75   8 1.95   7 2.00  11 2.04  13 2.27
  27  0.648  0.165  0.503-  16 1.73   3 1.94   8 1.96  12 1.97
  28  0.099  0.311  0.886-  14 1.75   9 1.95  10 2.00  11 2.04  13 2.27
  29  0.628  0.660  0.640-  17 1.84   8 1.93  12 1.95   7 1.96  13 2.04
  30  0.628  0.660  0.870-  17 1.84   9 1.93   6 1.95  10 1.96  13 2.05
  31  0.624  0.148  0.755-  17 1.82  11 1.96   8 1.96   9 1.96  13 2.05
  32  0.118  0.869  0.501-  16 1.73   7 1.87   4 1.94  12 1.99
  33  0.136  0.776  0.755-  17 1.81  11 1.85  10 1.91   7 1.91  13 2.22
 
  LATTYP: Found a triclinic cell.
 ALAT       =     7.3355249295
 B/A-ratio  =     0.6720794172
 C/A-ratio  =     1.7078125369
 COS(alpha) =     0.0000105907
 COS(beta)  =     0.0001192809
 COS(gamma) =     0.6713291101
  
  Lattice vectors:
  
 A1 = (   4.9284161763,   5.4332892280,  -0.0028547758)
 A2 = (   4.9300540451,  -0.0035059171,  -0.0005233575)
 A3 = (  -0.0011996932,  -0.0034766417, -12.5277008997)


Analysis of symmetry for initial positions (statically):
=====================================================================
 Subroutine PRICEL returns:
 Original cell was already a primitive cell.
 

 Routine SETGRP: Setting up the symmetry group for a 
 triclinic supercell.


 Subroutine GETGRP returns: Found  1 space group operations
 (whereof  1 operations were pure point group operations)
 out of a pool of  2 trial point group operations.


The static configuration has the point symmetry C_1 .


Analysis of symmetry for dynamics (positions and initial velocities):
=====================================================================
 Subroutine PRICEL returns:
 Original cell was already a primitive cell.
 

 Routine SETGRP: Setting up the symmetry group for a 
 triclinic supercell.


 Subroutine GETGRP returns: Found  1 space group operations
 (whereof  1 operations were pure point group operations)
 out of a pool of  2 trial point group operations.


The dynamic configuration has the point symmetry C_1 .


Analysis of structural, dynamic, and magnetic symmetry:
=====================================================================
 Subroutine PRICEL returns:
 Original cell was already a primitive cell.
 

 Routine SETGRP: Setting up the symmetry group for a 
 triclinic supercell.


 Subroutine GETGRP returns: Found  1 space group operations
 (whereof  1 operations were pure point group operations)
 out of a pool of  2 trial point group operations.


The magnetic configuration has the point symmetry C_1 .


 Subroutine INISYM returns: Found  1 space group operations
 (whereof  1 operations are pure point group operations),
 and found     1 'primitive' translations

 
 
 KPOINTS: KPOINTS created by Atomic Simulation Env

Automatic generation of k-mesh.
Space group operators:
 irot       det(A)        alpha          n_x          n_y          n_z        tau_x        tau_y        tau_z
    1     1.000000     0.000000     1.000000     0.000000     0.000000     0.000000     0.000000     0.000000
 
 Subroutine IBZKPT returns following result:
 ===========================================
 
 Found     26 irreducible k-points:
 
 Following reciprocal coordinates:
            Coordinates               Weight
  0.000000  0.000000  0.000000      1.000000
  0.250000  0.000000 -0.000000      2.000000
  0.500000  0.000000 -0.000000      1.000000
  0.000000  0.250000  0.000000      2.000000
  0.250000  0.250000  0.000000      2.000000
  0.500000  0.250000 -0.000000      2.000000
 -0.250000  0.250000  0.000000      2.000000
  0.000000  0.500000  0.000000      1.000000
  0.250000  0.500000 -0.000000      2.000000
  0.500000  0.500000  0.000000      1.000000
  0.000000 -0.000000  0.333333      2.000000
  0.250000  0.000000  0.333333      2.000000
  0.500000 -0.000000  0.333333      2.000000
 -0.250000  0.000000  0.333333      2.000000
 -0.000000  0.250000  0.333333      2.000000
  0.250000  0.250000  0.333333      2.000000
  0.500000  0.250000  0.333333      2.000000
 -0.250000  0.250000  0.333333      2.000000
  0.000000  0.500000  0.333333      2.000000
  0.250000  0.500000  0.333333      2.000000
  0.500000  0.500000  0.333333      2.000000
 -0.250000  0.500000  0.333333      2.000000
  0.000000 -0.250000  0.333333      2.000000
  0.250000 -0.250000  0.333333      2.000000
  0.500000 -0.250000  0.333333      2.000000
 -0.250000 -0.250000  0.333333      2.000000
 
 Following cartesian coordinates:
            Coordinates               Weight
  0.000000  0.000000  0.000000      1.000000
  0.050709  0.000015 -0.000005      2.000000
  0.101419  0.000031 -0.000010      1.000000
  0.000033  0.045983 -0.000013      2.000000
  0.050742  0.045998 -0.000018      2.000000
  0.101451  0.046014 -0.000022      2.000000
 -0.050677  0.045968 -0.000008      2.000000
  0.000065  0.091966 -0.000026      1.000000
  0.050775  0.091981 -0.000030      2.000000
  0.101484  0.091997 -0.000035      1.000000
  0.000003  0.000011  0.026608      2.000000
  0.050712  0.000027  0.026603      2.000000
  0.101422  0.000042  0.026598      2.000000
 -0.050707 -0.000004  0.026613      2.000000
  0.000036  0.045994  0.026595      2.000000
  0.050745  0.046010  0.026590      2.000000
  0.101454  0.046025  0.026585      2.000000
 -0.050674  0.045979  0.026600      2.000000
  0.000068  0.091977  0.026582      2.000000
  0.050778  0.091993  0.026577      2.000000
  0.101487  0.092008  0.026572      2.000000
 -0.050641  0.091962  0.026587      2.000000
 -0.000030 -0.045972  0.026620      2.000000
  0.050680 -0.045956  0.026616      2.000000
  0.101389 -0.045941  0.026611      2.000000
 -0.050739 -0.045987  0.026625      2.000000
 


--------------------------------------------------------------------------------------------------------




 Dimension of arrays:
   k-points           NKPTS =     26   k-points in BZ     NKDIM =     26   number of bands    NBANDS=    104
   number of dos      NEDOS =    301   number of ions     NIONS =     33
   non local maximal  LDIM  =      6   non local SUM 2l+1 LMDIM =     18
   total plane-waves  NPLWV =  86400
   max r-space proj   IRMAX =   4144   max aug-charges    IRDMAX=  15802
   dimension x,y,z NGX =    30 NGY =   36 NGZ =   80
   dimension x,y,z NGXF=    60 NGYF=   72 NGZF=  160
   support grid    NGXF=    60 NGYF=   72 NGZF=  160
   ions per type =              13   4  16
 NGX,Y,Z   is equivalent  to a cutoff of  10.12, 11.01, 10.62 a.u.
 NGXF,Y,Z  is equivalent  to a cutoff of  20.23, 22.02, 21.23 a.u.


 I would recommend the setting:
   dimension x,y,z NGX =    30 NGY =   33 NGZ =   75
 SYSTEM =  unknown system                          
 POSCAR =  Li  V  O                                

 Startparameter for this run:
   NWRITE =      2    write-flag & timer
   PREC   = normal    normal or accurate (medium, high low for compatibility)
   ISTART =      0    job   : 0-new  1-cont  2-samecut
   ICHARG =      2    charge: 1-file 2-atom 10-const
   ISPIN  =      2    spin polarized calculation?
   LNONCOLLINEAR =      F non collinear calculations
   LSORBIT =      F    spin-orbit coupling
   INIWAV =      1    electr: 0-lowe 1-rand  2-diag
   LASPH  =      F    aspherical Exc in radial PAW
   METAGGA=      F    non-selfconsistent MetaGGA calc.

 Electronic Relaxation 1
   ENCUT  =  600.0 eV  44.10 Ry    6.64 a.u.   9.85 10.86 25.02*2*pi/ulx,y,z
   ENINI  =  600.0     initial cutoff
   ENAUG  =  605.4 eV  augmentation charge cutoff
   NELM   =     60;   NELMIN=  2; NELMDL=-12     # of ELM steps 
   EDIFF  = 0.1E-05   stopping-criterion for ELM
   LREAL  =      T    real-space projection
   NLSPLINE    = F    spline interpolate recip. space projectors
   LCOMPAT=      F    compatible to vasp.4.4
   GGA_COMPAT  = T    GGA compatible to vasp.4.4-vasp.4.6
   LMAXPAW     = -100 max onsite density
   LMAXMIX     =    4 max onsite mixed and CHGCAR
   VOSKOWN=      0    Vosko Wilk Nusair interpolation
   ROPT   =   -0.00050  -0.00050  -0.00050
 Ionic relaxation
   EDIFFG = 0.1E-04   stopping-criterion for IOM
   NSW    =      0    number of steps for IOM
   NBLOCK =      1;   KBLOCK =      1    inner block; outer block 
   IBRION =     -1    ionic relax: 0-MD 1-quasi-New 2-CG
   NFREE  =      0    steps in history (QN), initial steepest desc. (CG)
   ISIF   =      2    stress and relaxation
   IWAVPR =     10    prediction:  0-non 1-charg 2-wave 3-comb
   ISYM   =      2    0-nonsym 1-usesym 2-fastsym
   LCORR  =      T    Harris-Foulkes like correction to forces

   POTIM  = 0.5000    time-step for ionic-motion
   TEIN   =    0.0    initial temperature
   TEBEG  =    0.0;   TEEND  =   0.0 temperature during run
   SMASS  =  -3.00    Nose mass-parameter (am)
   estimated Nose-frequenzy (Omega)   =  0.10E-29 period in steps =****** mass=  -0.555E-27a.u.
   SCALEE = 1.0000    scale energy and forces
   NPACO  =    256;   APACO  = 16.0  distance and # of slots for P.C.
   PSTRESS=    0.0 pullay stress

  Mass of Ions in am
   POMASS =   7.01 50.94 16.00
  Ionic Valenz
   ZVAL   =   1.00  5.00  6.00
  Atomic Wigner-Seitz radii
   RWIGS  =  -1.00 -1.00 -1.00
  virtual crystal weights 
   VCA    =   1.00  1.00  1.00
   NELECT =     129.0000    total number of electrons
   NUPDOWN=      -1.0000    fix difference up-down

 DOS related values:
   EMIN   =  10.00;   EMAX   =-10.00  energy-range for DOS
   EFERMI =   0.00
   ISMEAR =     0;   SIGMA  =   0.03  broadening in eV -4-tet -1-fermi 0-gaus

 Electronic relaxation 2 (details)
   IALGO  =     48    algorithm
   LDIAG  =      T    sub-space diagonalisation (order eigenvalues)
   LSUBROT=      F    optimize rotation matrix (better conditioning)
   TURBO    =      0    0=normal 1=particle mesh
   IRESTART =      0    0=no restart 2=restart with 2 vectors
   NREBOOT  =      0    no. of reboots
   NMIN     =      0    reboot dimension
   EREF     =   0.00    reference energy to select bands
   IMIX   =      4    mixing-type and parameters
     AMIX     =   0.40;   BMIX     =  1.00
     AMIX_MAG =   1.60;   BMIX_MAG =  1.00
     AMIN     =   0.10
     WC   =   100.;   INIMIX=   1;  MIXPRE=   1;  MAXMIX= -45

 Intra band minimization:
   WEIMIN = 0.0000     energy-eigenvalue tresh-hold
   EBREAK =  0.24E-08  absolut break condition
   DEPER  =   0.30     relativ break condition  

   TIME   =   0.40     timestep for ELM

  volume/ion in A,a.u.               =      10.18        68.67
  Fermi-wavevector in a.u.,A,eV,Ry     =   1.190098  2.248959 19.270385  1.416333
  Thomas-Fermi vector in A             =   2.326190
 
 Write flags
   LWAVE  =      F    write WAVECAR
   LCHARG =      T    write CHGCAR
   LVTOT  =      F    write LOCPOT, total local potential
   LVHAR  =      F    write LOCPOT, Hartree potential only
   LELF   =      F    write electronic localiz. function (ELF)
   LORBIT =     12    0 simple, 1 ext, 2 COOP (PROOUT)


 Dipole corrections
   LMONO  =      F    monopole corrections only (constant potential shift)
   LDIPOL =      F    correct potential (dipole corrections)
   IDIPOL =      0    1-x, 2-y, 3-z, 4-all directions 
   EPSILON=  1.0000000 bulk dielectric constant

 LDA+U is selected, type is set to LDAUTYPE =  2
   angular momentum for each species LDAUL =    -1    2   -1
   U (eV)           for each species LDAUU =   0.0  3.0  0.0
   J (eV)           for each species LDAUJ =   0.0  0.0  0.0
 Exchange correlation treatment:
   GGA     =    PE    GGA type
   LEXCH   =     8    internal setting for exchange type
   VOSKOWN=      0    Vosko Wilk Nusair interpolation
   LHFCALC =     F    Hartree Fock is set to
   LHFONE  =     F    Hartree Fock one center treatment
   AEXX    =    0.0000 exact exchange contribution

 Linear response parameters
   LEPSILON=     F    determine dielectric tensor
   LRPA    =     F    only Hartree local field effects (RPA)
   LNABLA  =     F    use nabla operator in PAW spheres
   LVEL    =     F    velocity operator in full k-point grid
   LINTERFAST=   F  fast interpolation
   KINTER  =     0    interpolate to denser k-point grid
   CSHIFT  =0.1000    complex shift for real part using Kramers Kronig
   OMEGAMAX=  -1.0    maximum frequency
   DEG_THRESHOLD= 0.2000000E-02 threshold for treating states as degnerate
   RTIME   =    0.100 relaxation time in fs

 Orbital magnetization related:
   ORBITALMAG=     F  switch on orbital magnetization
   LCHIMAG   =     F  perturbation theory with respect to B field
   DQ        =  0.001000  dq finite difference perturbation B field



--------------------------------------------------------------------------------------------------------


 Static calculation
 charge density and potential will be updated during run
 spin polarized calculation
 RMM-DIIS sequential band-by-band
 perform sub-space diagonalisation
    before iterative eigenvector-optimisation
 modified Broyden-mixing scheme, WC =      100.0
 initial mixing is a Kerker type mixing with AMIX =  0.4000 and BMIX =      1.0000
 Hartree-type preconditioning will be used
 using additional bands           39
 real space projection scheme for non local part
 use partial core corrections
 calculate Harris-corrections to forces 
   (improved forces if not selfconsistent)
 use gradient corrections 
 use of overlap-Matrix (Vanderbilt PP)
 Gauss-broadening in eV      SIGMA  =   0.03


--------------------------------------------------------------------------------------------------------


  energy-cutoff  :      600.00
  volume of cell :      335.79
      direct lattice vectors                 reciprocal lattice vectors
     4.930054045 -0.003505917 -0.000523358     0.202837574  0.000061098 -0.000019441
    -0.001637869  5.436795145 -0.002331418     0.000130794  0.183931906 -0.000051057
     0.001199693  0.003476642 12.527700900     0.000008498  0.000034232  0.079823096

  length of vectors
     4.930055319  5.436795892 12.527701440     0.202837585  0.183931960  0.079823104


 
 k-points in units of 2pi/SCALE and weight: KPOINTS created by Atomic Simulation Env
   0.00000000  0.00000000  0.00000000       0.021
   0.05070939  0.00001527 -0.00000486       0.042
   0.10141879  0.00003055 -0.00000972       0.021
   0.00003270  0.04598298 -0.00001276       0.042
   0.05074209  0.04599825 -0.00001762       0.042
   0.10145149  0.04601353 -0.00002248       0.042
  -0.05067670  0.04596770 -0.00000790       0.042
   0.00006540  0.09196595 -0.00002553       0.021
   0.05077479  0.09198123 -0.00003039       0.042
   0.10148418  0.09199650 -0.00003525       0.021
   0.00000283  0.00001141  0.02660770       0.042
   0.05071223  0.00002669  0.02660284       0.042
   0.10142162  0.00004196  0.02659798       0.042
  -0.05070656 -0.00000386  0.02661256       0.042
   0.00003553  0.04599439  0.02659493       0.042
   0.05074492  0.04600966  0.02659007       0.042
   0.10145432  0.04602494  0.02658521       0.042
  -0.05067386  0.04597911  0.02659979       0.042
   0.00006823  0.09197736  0.02658217       0.042
   0.05077762  0.09199264  0.02657731       0.042
   0.10148702  0.09200791  0.02657245       0.042
  -0.05064116  0.09196209  0.02658703       0.042
  -0.00002987 -0.04597157  0.02662046       0.042
   0.05067953 -0.04595629  0.02661560       0.042
   0.10138892 -0.04594102  0.02661074       0.042
  -0.05073926 -0.04598684  0.02662532       0.042
 
 k-points in reciprocal lattice and weights: KPOINTS created by Atomic Simulation Env
   0.00000000  0.00000000  0.00000000       0.021
   0.25000000  0.00000000 -0.00000000       0.042
   0.50000000  0.00000000 -0.00000000       0.021
   0.00000000  0.25000000  0.00000000       0.042
   0.25000000  0.25000000  0.00000000       0.042
   0.50000000  0.25000000 -0.00000000       0.042
  -0.25000000  0.25000000  0.00000000       0.042
   0.00000000  0.50000000  0.00000000       0.021
   0.25000000  0.50000000 -0.00000000       0.042
   0.50000000  0.50000000  0.00000000       0.021
   0.00000000 -0.00000000  0.33333333       0.042
   0.25000000  0.00000000  0.33333333       0.042
   0.50000000 -0.00000000  0.33333333       0.042
  -0.25000000  0.00000000  0.33333333       0.042
  -0.00000000  0.25000000  0.33333333       0.042
   0.25000000  0.25000000  0.33333333       0.042
   0.50000000  0.25000000  0.33333333       0.042
  -0.25000000  0.25000000  0.33333333       0.042
   0.00000000  0.50000000  0.33333333       0.042
   0.25000000  0.50000000  0.33333333       0.042
   0.50000000  0.50000000  0.33333333       0.042
  -0.25000000  0.50000000  0.33333333       0.042
   0.00000000 -0.25000000  0.33333333       0.042
   0.25000000 -0.25000000  0.33333333       0.042
   0.50000000 -0.25000000  0.33333333       0.042
  -0.25000000 -0.25000000  0.33333333       0.042
 
 position of ions in fractional coordinates (direct lattice) 
   0.00913063  0.67041264  0.13038049
   0.50882732  0.33228320  0.13124336
   0.50899455  0.33232071  0.37856298
   0.00918919  0.67035955  0.37944886
   0.01120122  0.17178246  0.25492652
   0.51851585  0.82118969  0.00213974
   0.02197495  0.67118644  0.61625296
   0.49362914  0.32676962  0.62888080
   0.49356028  0.32699168  0.88086896
   0.02177694  0.67134160  0.89345642
   0.01744943  0.09984796  0.75486799
   0.51871301  0.82110157  0.50761506
   0.83556679  0.47177091  0.75482593
   0.99785315  0.16897975  0.00466381
   0.50277035  0.83157580  0.25494312
   0.99796899  0.16886966  0.50513873
   0.49857948  0.83205917  0.75485208
   0.11045720  0.32861548  0.11656424
   0.64797601  0.16498176  0.00641250
   0.11058723  0.32861770  0.39330196
   0.61283590  0.67722419  0.14153485
   0.61303725  0.67720675  0.36829553
   0.61283083  0.13545444  0.25492849
   0.11796046  0.86944896  0.00907452
   0.15132791  0.83202568  0.25498714
   0.09866329  0.31106972  0.62393880
   0.64808971  0.16478919  0.50337452
   0.09856147  0.31115177  0.88586398
   0.62812569  0.66002774  0.63955056
   0.62810630  0.66023675  0.87016786
   0.62361837  0.14772169  0.75488397
   0.11822835  0.86938169  0.50068407
   0.13642339  0.77635220  0.75488275
 
 position of ions in cartesian coordinates  (Angst):
   0.04407285  3.64531747  1.63180004
   2.50815939  1.80522806  1.64313651
   2.50928051  1.80629124  4.74148258
   0.04466046  3.64589455  4.75205409
   0.05524710  0.93479306  3.19323688
   2.55496873  4.46282970  0.02462017
   0.10797770  3.65116861  7.71865645
   2.43383758  1.77703523  7.87741034
   2.43380007  1.77911888 11.03424216
   0.10733381  3.65297663 11.19137817
   0.08676869  0.54541613  9.45651853
   2.55654727  4.46410725  6.35706380
   4.11952231  2.56461664  9.45469626
   4.91919879  0.91522612  0.05751059
   2.47762886  4.52023094  3.19164929
   4.92037047  0.91636714  6.32731092
   2.45756658  4.52461161  9.45436021
   0.54416157  1.78663307  1.45945804
   3.19429423  0.89472256  0.07961014
   0.54513464  1.78760676  4.92634525
   3.02037469  3.68027269  1.77120662
   3.02163942  3.68096557  4.61199655
   3.02137311  0.73517582  3.19303129
   0.58013830  4.72663389  0.11159410
   0.74499792  4.52390915  3.19238367
   0.48665440  1.69304563  7.81574181
   3.19545129  0.89540297  6.30540202
   0.48646652  1.69440269 11.09706199
   3.09637981  3.58845692  8.01023062
   3.09656056  3.59039511 10.89933463
   3.07513593  0.80357066  9.45628977
   0.58204891  4.72797636  6.27033156
   0.67220874  4.22301403  9.45506390
 


--------------------------------------------------------------------------------------------------------


 k-point  1 :   0.0000 0.0000 0.0000  plane waves:   11197
 k-point  2 :   0.2500 0.0000-0.0000  plane waves:   11194
 k-point  3 :   0.5000 0.0000-0.0000  plane waves:   11208
 k-point  4 :   0.0000 0.2500 0.0000  plane waves:   11184
 k-point  5 :   0.2500 0.2500 0.0000  plane waves:   11214
 k-point  6 :   0.5000 0.2500-0.0000  plane waves:   11208
 k-point  7 :  -0.2500 0.2500 0.0000  plane waves:   11208
 k-point  8 :   0.0000 0.5000 0.0000  plane waves:   11198
 k-point  9 :   0.2500 0.5000-0.0000  plane waves:   11202
 k-point 10 :   0.5000 0.5000 0.0000  plane waves:   11222
 k-point 11 :   0.0000-0.0000 0.3333  plane waves:   11209
 k-point 12 :   0.2500 0.0000 0.3333  plane waves:   11188
 k-point 13 :   0.5000-0.0000 0.3333  plane waves:   11209
 k-point 14 :  -0.2500 0.0000 0.3333  plane waves:   11189
 k-point 15 :  -0.0000 0.2500 0.3333  plane waves:   11216
 k-point 16 :   0.2500 0.2500 0.3333  plane waves:   11202
 k-point 17 :   0.5000 0.2500 0.3333  plane waves:   11212
 k-point 18 :  -0.2500 0.2500 0.3333  plane waves:   11207
 k-point 19 :   0.0000 0.5000 0.3333  plane waves:   11190
 k-point 20 :   0.2500 0.5000 0.3333  plane waves:   11220
 k-point 21 :   0.5000 0.5000 0.3333  plane waves:   11228
 k-point 22 :  -0.2500 0.5000 0.3333  plane waves:   11220
 k-point 23 :   0.0000-0.2500 0.3333  plane waves:   11217
 k-point 24 :   0.2500-0.2500 0.3333  plane waves:   11207
 k-point 25 :   0.5000-0.2500 0.3333  plane waves:   11213
 k-point 26 :  -0.2500-0.2500 0.3333  plane waves:   11202

 maximum and minimum number of plane-waves per node :      1428     1372

 maximum number of plane-waves:     11228
 maximum index in each direction: 
   IXMAX=   10   IYMAX=   11   IZMAX=   25
   IXMIN=  -10   IYMIN=  -11   IZMIN=  -25

 WARNING: aliasing errors must be expected set NGX to  42 to avoid them
 WARNING: aliasing errors must be expected set NGY to  46 to avoid them
 WARNING: aliasing errors must be expected set NGZ to 102 to avoid them
 aliasing errors are usually negligible using standard VASP settings
 and one can safely disregard these warnings

 real space projection operators:
  total allocation   :       4497.53 KBytes
  max/ min on nodes  :        629.33        432.74


 parallel 3D FFT for wavefunctions:
    minimum data exchange during FFTs selected (reduces bandwidth)
 parallel 3D FFT for charge:
    minimum data exchange during FFTs selected (reduces bandwidth)


 total amount of memory used by VASP on root node    51925. kBytes
========================================================================

   base      :      30000. kBytes
   nonlr-proj:       3050. kBytes
   fftplans  :        763. kBytes
   grid      :       1950. kBytes
   one-center:        155. kBytes
   wavefun   :      16007. kBytes
 
     INWAV:  cpu time    0.0001: real time    0.0001
 Broyden mixing: mesh for mixing (old mesh)
   NGX = 19   NGY = 21   NGZ = 51
  (NGX  = 60   NGY  = 72   NGZ  =160)
  gives a total of  20349 points

 initial charge density was supplied:
 charge density of overlapping atoms calculated
 number of electron     129.0000000 magnetization      33.0000000
 keeping initial charge density in first step


--------------------------------------------------------------------------------------------------------


 Maximum index for non-local projection operator          596
 Maximum index for augmentation-charges          774 (set IRDMAX)


--------------------------------------------------------------------------------------------------------


 First call to EWALD:  gamma=   0.255
 Maximum number of real-space cells 4x 3x 2
 Maximum number of reciprocal cells 2x 2x 5

 FEWALD executed in parallel
    FEWALD:  cpu time    0.0016: real time    0.0016


----------------------------------------- Iteration    1(   1)  ---------------------------------------


    POTLOK:  cpu time    0.0148: real time    0.0149
    SETDIJ:  cpu time    0.0070: real time    0.0070
    EDDIAG:  cpu time    0.7561: real time    0.7673
  RMM-DIIS:  cpu time    0.4120: real time    0.4156
    ORTHCH:  cpu time    0.1822: real time    0.1832
       DOS:  cpu time    0.0024: real time    0.0027
    --------------------------------------------
      LOOP:  cpu time    1.3785: real time    1.3956

 eigenvalue-minimisations  :  5408
 total energy-change (2. order) : 0.1719355E+04  (-0.4609957E+04)
 number of electron     129.0000000 magnetization      33.0000000
 augmentation part      129.0000000 magnetization      33.0000000

 Free energy of the ion-electron system (eV)
  ---------------------------------------------------
  alpha Z        PSCENC =       250.70068971
  Ewald energy   TEWEN  =     -5338.12860147
  -Hartree energ DENC   =     -2381.00590056
  -exchange      EXHF   =         0.00000000
  -V(xc)+E(xc)   XCENC  =       208.81129882
  PAW double counting   =      6464.99996438    -6216.90839793
  entropy T*S    EENTRO =        -0.00579092
  eigenvalues    EBANDS =      1060.72783369
  atomic energy  EATOM  =      7670.16376216
  Solvation  Ediel_sol  =         0.00000000
  ---------------------------------------------------
  free energy    TOTEN  =      1719.35485788 eV

  energy without entropy =     1719.36064880  energy(sigma->0) =     1719.35775334


--------------------------------------------------------------------------------------------------------




----------------------------------------- Iteration    1(   2)  ---------------------------------------


    EDDIAG:  cpu time    0.7355: real time    0.7409
  RMM-DIIS:  cpu time    0.4113: real time    0.4141
    ORTHCH:  cpu time    0.1819: real time    0.1830
       DOS:  cpu time    0.0020: real time    0.0021
    --------------------------------------------
      LOOP:  cpu time    1.3323: real time    1.3544

 eigenvalue-minimisations  :  5408
 total energy-change (2. order) :-0.1216419E+04  (-0.1150476E+04)
 number of electron     129.0000000 magnetization      33.0000000
 augmentation part      129.0000000 magnetization      33.0000000

 Free energy of the ion-electron system (eV)
  ---------------------------------------------------
  alpha Z        PSCENC =       250.70068971
  Ewald energy   TEWEN  =     -5338.12860147
  -Hartree energ DENC   =     -2381.00590056
  -exchange      EXHF   =         0.00000000
  -V(xc)+E(xc)   XCENC  =       208.81129882
  PAW double counting   =      6464.99996438    -6216.90839793
  entropy T*S    EENTRO =        -0.00491198
  eigenvalues    EBANDS =      -155.69195534
  atomic energy  EATOM  =      7670.16376216
  Solvation  Ediel_sol  =         0.00000000
  ---------------------------------------------------
  free energy    TOTEN  =       502.93594778 eV

  energy without entropy =      502.94085976  energy(sigma->0) =      502.93840377


--------------------------------------------------------------------------------------------------------




----------------------------------------- Iteration    1(   3)  ---------------------------------------


    EDDIAG:  cpu time    0.7179: real time    0.7228
  RMM-DIIS:  cpu time    0.4138: real time    0.4168
    ORTHCH:  cpu time    0.1802: real time    0.1814
       DOS:  cpu time    0.0021: real time    0.0021
    --------------------------------------------
      LOOP:  cpu time    1.3153: real time    1.3376

 eigenvalue-minimisations  :  5408
 total energy-change (2. order) :-0.3754200E+03  (-0.3342553E+03)
 number of electron     129.0000000 magnetization      33.0000000
 augmentation part      129.0000000 magnetization      33.0000000

 Free energy of the ion-electron system (eV)
  ---------------------------------------------------
  alpha Z        PSCENC =       250.70068971
  Ewald energy   TEWEN  =     -5338.12860147
  -Hartree energ DENC   =     -2381.00590056
  -exchange      EXHF   =         0.00000000
  -V(xc)+E(xc)   XCENC  =       208.81129882
  PAW double counting   =      6464.99996438    -6216.90839793
  entropy T*S    EENTRO =        -0.00768136
  eigenvalues    EBANDS =      -531.10919998
  atomic energy  EATOM  =      7670.16376216
  Solvation  Ediel_sol  =         0.00000000
  ---------------------------------------------------
  free energy    TOTEN  =       127.51593376 eV

  energy without entropy =      127.52361512  energy(sigma->0) =      127.51977444


--------------------------------------------------------------------------------------------------------




----------------------------------------- Iteration    1(   4)  ---------------------------------------


    EDDIAG:  cpu time    0.7149: real time    0.7198
  RMM-DIIS:  cpu time    0.4105: real time    0.4136
    ORTHCH:  cpu time    0.1854: real time    0.1864
       DOS:  cpu time    0.0020: real time    0.0020
    --------------------------------------------
      LOOP:  cpu time    1.3140: real time    1.3358

 eigenvalue-minimisations  :  5408
 total energy-change (2. order) :-0.1866372E+03  (-0.1114573E+03)
 number of electron     129.0000000 magnetization      33.0000000
 augmentation part      129.0000000 magnetization      33.0000000

 Free energy of the ion-electron system (eV)
  ---------------------------------------------------
  alpha Z        PSCENC =       250.70068971
  Ewald energy   TEWEN  =     -5338.12860147
  -Hartree energ DENC   =     -2381.00590056
  -exchange      EXHF   =         0.00000000
  -V(xc)+E(xc)   XCENC  =       208.81129882
  PAW double counting   =      6464.99996438    -6216.90839793
  entropy T*S    EENTRO =        -0.00195983
  eigenvalues    EBANDS =      -717.75208889
  atomic energy  EATOM  =      7670.16376216
  Solvation  Ediel_sol  =         0.00000000
  ---------------------------------------------------
  free energy    TOTEN  =       -59.12123363 eV

  energy without entropy =      -59.11927379  energy(sigma->0) =      -59.12025371


--------------------------------------------------------------------------------------------------------




----------------------------------------- Iteration    1(   5)  ---------------------------------------


    EDDIAG:  cpu time    0.7337: real time    0.7387
  RMM-DIIS:  cpu time    0.4112: real time    0.4139
    ORTHCH:  cpu time    0.1825: real time    0.1836
       DOS:  cpu time    0.0021: real time    0.0021
    --------------------------------------------
      LOOP:  cpu time    1.3308: real time    1.3531

 eigenvalue-minimisations  :  5408
 total energy-change (2. order) :-0.9888578E+02  (-0.7057713E+02)
 number of electron     129.0000000 magnetization      33.0000000
 augmentation part      129.0000000 magnetization      33.0000000

 Free energy of the ion-electron system (eV)
  ---------------------------------------------------
  alpha Z        PSCENC =       250.70068971
  Ewald energy   TEWEN  =     -5338.12860147
  -Hartree energ DENC   =     -2381.00590056
  -exchange      EXHF   =         0.00000000
  -V(xc)+E(xc)   XCENC  =       208.81129882
  PAW double counting   =      6464.99996438    -6216.90839793
  entropy T*S    EENTRO =        -0.00199510
  eigenvalues    EBANDS =      -816.63782902
  atomic energy  EATOM  =      7670.16376216
  Solvation  Ediel_sol  =         0.00000000
  ---------------------------------------------------
  free energy    TOTEN  =      -158.00700902 eV

  energy without entropy =     -158.00501392  energy(sigma->0) =     -158.00601147


--------------------------------------------------------------------------------------------------------




----------------------------------------- Iteration    1(   6)  ---------------------------------------


    EDDIAG:  cpu time    0.7139: real time    0.7188
  RMM-DIIS:  cpu time    0.4113: real time    0.4140
    ORTHCH:  cpu time    0.1825: real time    0.1836
       DOS:  cpu time    0.0020: real time    0.0020
    --------------------------------------------
      LOOP:  cpu time    1.3109: real time    1.3327

 eigenvalue-minimisations  :  5408
 total energy-change (2. order) :-0.4460030E+02  (-0.2921694E+02)
 number of electron     129.0000000 magnetization      33.0000000
 augmentation part      129.0000000 magnetization      33.0000000

 Free energy of the ion-electron system (eV)
  ---------------------------------------------------
  alpha Z        PSCENC =       250.70068971
  Ewald energy   TEWEN  =     -5338.12860147
  -Hartree energ DENC   =     -2381.00590056
  -exchange      EXHF   =         0.00000000
  -V(xc)+E(xc)   XCENC  =       208.81129882
  PAW double counting   =      6464.99996438    -6216.90839793
  entropy T*S    EENTRO =        -0.00164592
  eigenvalues    EBANDS =      -861.23847981
  atomic energy  EATOM  =      7670.16376216
  Solvation  Ediel_sol  =         0.00000000
  ---------------------------------------------------
  free energy    TOTEN  =      -202.60731063 eV

  energy without entropy =     -202.60566471  energy(sigma->0) =     -202.60648767


--------------------------------------------------------------------------------------------------------




----------------------------------------- Iteration    1(   7)  ---------------------------------------


    EDDIAG:  cpu time    0.7165: real time    0.7214
  RMM-DIIS:  cpu time    0.4115: real time    0.4145
    ORTHCH:  cpu time    0.1820: real time    0.1832
       DOS:  cpu time    0.0021: real time    0.0021
    --------------------------------------------
      LOOP:  cpu time    1.3136: real time    1.3356

 eigenvalue-minimisations  :  5408
 total energy-change (2. order) :-0.2447271E+02  (-0.1793447E+02)
 number of electron     129.0000000 magnetization      33.0000000
 augmentation part      129.0000000 magnetization      33.0000000

 Free energy of the ion-electron system (eV)
  ---------------------------------------------------
  alpha Z        PSCENC =       250.70068971
  Ewald energy   TEWEN  =     -5338.12860147
  -Hartree energ DENC   =     -2381.00590056
  -exchange      EXHF   =         0.00000000
  -V(xc)+E(xc)   XCENC  =       208.81129882
  PAW double counting   =      6464.99996438    -6216.90839793
  entropy T*S    EENTRO =        -0.00249917
  eigenvalues    EBANDS =      -885.71033634
  atomic energy  EATOM  =      7670.16376216
  Solvation  Ediel_sol  =         0.00000000
  ---------------------------------------------------
  free energy    TOTEN  =      -227.08002041 eV

  energy without entropy =     -227.07752123  energy(sigma->0) =     -227.07877082


--------------------------------------------------------------------------------------------------------




----------------------------------------- Iteration    1(   8)  ---------------------------------------


    EDDIAG:  cpu time    0.7133: real time    0.7181
  RMM-DIIS:  cpu time    0.4169: real time    0.4197
    ORTHCH:  cpu time    0.1856: real time    0.1866
       DOS:  cpu time    0.0020: real time    0.0020
    --------------------------------------------
      LOOP:  cpu time    1.3190: real time    1.3411

 eigenvalue-minimisations  :  5408
 total energy-change (2. order) :-0.1129142E+02  (-0.7902599E+01)
 number of electron     129.0000000 magnetization      33.0000000
 augmentation part      129.0000000 magnetization      33.0000000

 Free energy of the ion-electron system (eV)
  ---------------------------------------------------
  alpha Z        PSCENC =       250.70068971
  Ewald energy   TEWEN  =     -5338.12860147
  -Hartree energ DENC   =     -2381.00590056
  -exchange      EXHF   =         0.00000000
  -V(xc)+E(xc)   XCENC  =       208.81129882
  PAW double counting   =      6464.99996438    -6216.90839793
  entropy T*S    EENTRO =        -0.00240341
  eigenvalues    EBANDS =      -897.00185339
  atomic energy  EATOM  =      7670.16376216
  Solvation  Ediel_sol  =         0.00000000
  ---------------------------------------------------
  free energy    TOTEN  =      -238.37144170 eV

  energy without entropy =     -238.36903828  energy(sigma->0) =     -238.37023999


--------------------------------------------------------------------------------------------------------




----------------------------------------- Iteration    1(   9)  ---------------------------------------


    EDDIAG:  cpu time    0.7158: real time    0.7208
  RMM-DIIS:  cpu time    1.2332: real time    1.2423
    ORTHCH:  cpu time    0.1814: real time    0.1825
       DOS:  cpu time    0.0020: real time    0.0020
    --------------------------------------------
      LOOP:  cpu time    2.1338: real time    2.1621

 eigenvalue-minimisations  : 18118
 total energy-change (2. order) :-0.1330416E+02  (-0.1177514E+02)
 number of electron     129.0000000 magnetization      33.0000000
 augmentation part      129.0000000 magnetization      33.0000000

 Free energy of the ion-electron system (eV)
  ---------------------------------------------------
  alpha Z        PSCENC =       250.70068971
  Ewald energy   TEWEN  =     -5338.12860147
  -Hartree energ DENC   =     -2381.00590056
  -exchange      EXHF   =         0.00000000
  -V(xc)+E(xc)   XCENC  =       208.81129882
  PAW double counting   =      6464.99996438    -6216.90839793
  entropy T*S    EENTRO =        -0.00176235
  eigenvalues    EBANDS =      -910.30664997
  atomic energy  EATOM  =      7670.16376216
  Solvation  Ediel_sol  =         0.00000000
  ---------------------------------------------------
  free energy    TOTEN  =      -251.67559721 eV

  energy without entropy =     -251.67383487  energy(sigma->0) =     -251.67471604


--------------------------------------------------------------------------------------------------------




----------------------------------------- Iteration    1(  10)  ---------------------------------------


    EDDIAG:  cpu time    0.7166: real time    0.7219
  RMM-DIIS:  cpu time    1.2516: real time    1.2607
    ORTHCH:  cpu time    0.1826: real time    0.1839
       DOS:  cpu time    0.0021: real time    0.0021
    --------------------------------------------
      LOOP:  cpu time    2.1541: real time    2.1824

 eigenvalue-minimisations  : 18291
 total energy-change (2. order) :-0.3189931E+00  (-0.2198905E+00)
 number of electron     129.0000000 magnetization      33.0000000
 augmentation part      129.0000000 magnetization      33.0000000

 Free energy of the ion-electron system (eV)
  ---------------------------------------------------
  alpha Z        PSCENC =       250.70068971
  Ewald energy   TEWEN  =     -5338.12860147
  -Hartree energ DENC   =     -2381.00590056
  -exchange      EXHF   =         0.00000000
  -V(xc)+E(xc)   XCENC  =       208.81129882
  PAW double counting   =      6464.99996438    -6216.90839793
  entropy T*S    EENTRO =        -0.00220963
  eigenvalues    EBANDS =      -910.62519578
  atomic energy  EATOM  =      7670.16376216
  Solvation  Ediel_sol  =         0.00000000
  ---------------------------------------------------
  free energy    TOTEN  =      -251.99459031 eV

  energy without entropy =     -251.99238068  energy(sigma->0) =     -251.99348549


--------------------------------------------------------------------------------------------------------




----------------------------------------- Iteration    1(  11)  ---------------------------------------


    EDDIAG:  cpu time    0.7124: real time    0.7173
  RMM-DIIS:  cpu time    1.2505: real time    1.2596
    ORTHCH:  cpu time    0.1817: real time    0.1828
       DOS:  cpu time    0.0021: real time    0.0021
    --------------------------------------------
      LOOP:  cpu time    2.1480: real time    2.1759

 eigenvalue-minimisations  : 18264
 total energy-change (2. order) :-0.1485124E-01  (-0.9910619E-02)
 number of electron     129.0000000 magnetization      33.0000000
 augmentation part      129.0000000 magnetization      33.0000000

 Free energy of the ion-electron system (eV)
  ---------------------------------------------------
  alpha Z        PSCENC =       250.70068971
  Ewald energy   TEWEN  =     -5338.12860147
  -Hartree energ DENC   =     -2381.00590056
  -exchange      EXHF   =         0.00000000
  -V(xc)+E(xc)   XCENC  =       208.81129882
  PAW double counting   =      6464.99996438    -6216.90839793
  entropy T*S    EENTRO =        -0.00229522
  eigenvalues    EBANDS =      -910.63996143
  atomic energy  EATOM  =      7670.16376216
  Solvation  Ediel_sol  =         0.00000000
  ---------------------------------------------------
  free energy    TOTEN  =      -252.00944155 eV

  energy without entropy =     -252.00714633  energy(sigma->0) =     -252.00829394


--------------------------------------------------------------------------------------------------------




----------------------------------------- Iteration    1(  12)  ---------------------------------------


    EDDIAG:  cpu time    0.7109: real time    0.7159
  RMM-DIIS:  cpu time    1.1544: real time    1.1627
    ORTHCH:  cpu time    0.1812: real time    0.1822
       DOS:  cpu time    0.0020: real time    0.0020
    CHARGE:  cpu time    0.0540: real time    0.0543
    MIXING:  cpu time    0.0014: real time    0.0016
    --------------------------------------------
      LOOP:  cpu time    2.1053: real time    2.1333

 eigenvalue-minimisations  : 16956
 total energy-change (2. order) :-0.1437517E-02  (-0.1291230E-02)
 number of electron     128.9999976 magnetization      22.7094119
 augmentation part       14.7513739 magnetization      21.7799073

 Broyden mixing:
  rms(total) = 0.95162E+01    rms(broyden)= 0.95160E+01
  rms(prec ) = 0.10242E+02
  weight for this iteration     100.00

 Free energy of the ion-electron system (eV)
  ---------------------------------------------------
  alpha Z        PSCENC =       250.70068971
  Ewald energy   TEWEN  =     -5338.12860147
  -Hartree energ DENC   =     -2381.00590056
  -exchange      EXHF   =         0.00000000
  -V(xc)+E(xc)   XCENC  =       208.81129882
  PAW double counting   =      6464.99996438    -6216.90839793
  entropy T*S    EENTRO =        -0.00230902
  eigenvalues    EBANDS =      -910.64138515
  atomic energy  EATOM  =      7670.16376216
  Solvation  Ediel_sol  =         0.00000000
  ---------------------------------------------------
  free energy    TOTEN  =      -252.01087907 eV

  energy without entropy =     -252.00857004  energy(sigma->0) =     -252.00972455


--------------------------------------------------------------------------------------------------------




----------------------------------------- Iteration    1(  13)  ---------------------------------------


    POTLOK:  cpu time    0.0131: real time    0.0132
    SETDIJ:  cpu time    0.0047: real time    0.0047
    EDDIAG:  cpu time    0.7134: real time    0.7178
  RMM-DIIS:  cpu time    0.9814: real time    0.9875
    ORTHCH:  cpu time    0.1820: real time    0.1830
       DOS:  cpu time    0.0022: real time    0.0022
    CHARGE:  cpu time    0.0579: real time    0.0581
    MIXING:  cpu time    0.0005: real time    0.0005
    --------------------------------------------
      LOOP:  cpu time    1.9567: real time    1.9808

 eigenvalue-minimisations  : 14348
 total energy-change (2. order) : 0.5754407E+02  (-0.3985371E+02)
 number of electron     128.9999981 magnetization      19.1863921
 augmentation part       23.9601058 magnetization      15.6581237

 Broyden mixing:
  rms(total) = 0.75794E+01    rms(broyden)= 0.75789E+01
  rms(prec ) = 0.88761E+01
  weight for this iteration     100.00

 eigenvalues of (default mixing * dielectric matrix)
  average eigenvalue GAMMA=   0.6242
  0.6242

 Free energy of the ion-electron system (eV)
  ---------------------------------------------------
  alpha Z        PSCENC =       250.70068971
  Ewald energy   TEWEN  =     -5338.12860147
  -Hartree energ DENC   =     -2669.42778846
  -exchange      EXHF   =         0.00000000
  -V(xc)+E(xc)   XCENC  =       247.58532585
  PAW double counting   =      8270.91980351    -8024.80056256
  entropy T*S    EENTRO =        -0.00689114
  eigenvalues    EBANDS =      -601.47255027
  atomic energy  EATOM  =      7670.16376216
  Solvation  Ediel_sol  =         0.00000000
  ---------------------------------------------------
  free energy    TOTEN  =      -194.46681267 eV

  energy without entropy =     -194.45992153  energy(sigma->0) =     -194.46336710


--------------------------------------------------------------------------------------------------------




----------------------------------------- Iteration    1(  14)  ---------------------------------------


    POTLOK:  cpu time    0.0124: real time    0.0125
    SETDIJ:  cpu time    0.0047: real time    0.0047
    EDDIAG:  cpu time    0.7145: real time    0.7187
  RMM-DIIS:  cpu time    0.9610: real time    0.9671
    ORTHCH:  cpu time    0.1824: real time    0.1834
       DOS:  cpu time    0.0022: real time    0.0023
    CHARGE:  cpu time    0.0540: real time    0.0543
    MIXING:  cpu time    0.0005: real time    0.0005
    --------------------------------------------
      LOOP:  cpu time    1.9333: real time    1.9574

 eigenvalue-minimisations  : 14118
 total energy-change (2. order) :-0.7892904E+01  (-0.7078890E+01)
 number of electron     128.9999981 magnetization      11.1410456
 augmentation part       14.4769829 magnetization       9.7946148

 Broyden mixing:
  rms(total) = 0.41321E+01    rms(broyden)= 0.41319E+01
  rms(prec ) = 0.46696E+01
  weight for this iteration     100.00

 eigenvalues of (default mixing * dielectric matrix)
  average eigenvalue GAMMA=   0.8800
  1.3635  0.3965

 Free energy of the ion-electron system (eV)
  ---------------------------------------------------
  alpha Z        PSCENC =       250.70068971
  Ewald energy   TEWEN  =     -5338.12860147
  -Hartree energ DENC   =     -2609.61112051
  -exchange      EXHF   =         0.00000000
  -V(xc)+E(xc)   XCENC  =       229.87867604
  PAW double counting   =      8664.09095466    -8425.93089746
  entropy T*S    EENTRO =        -0.01163907
  eigenvalues    EBANDS =      -643.51154087
  atomic energy  EATOM  =      7670.16376216
  Solvation  Ediel_sol  =         0.00000000
  ---------------------------------------------------
  free energy    TOTEN  =      -202.35971681 eV

  energy without entropy =     -202.34807774  energy(sigma->0) =     -202.35389728


--------------------------------------------------------------------------------------------------------




----------------------------------------- Iteration    1(  15)  ---------------------------------------


    POTLOK:  cpu time    0.0127: real time    0.0128
    SETDIJ:  cpu time    0.0046: real time    0.0046
    EDDIAG:  cpu time    0.7127: real time    0.7170
  RMM-DIIS:  cpu time    0.9607: real time    0.9669
    ORTHCH:  cpu time    0.1884: real time    0.1894
       DOS:  cpu time    0.0014: real time    0.0014
    CHARGE:  cpu time    0.0540: real time    0.0543
    MIXING:  cpu time    0.0005: real time    0.0005
    --------------------------------------------
      LOOP:  cpu time    1.9368: real time    1.9616

 eigenvalue-minimisations  : 13922
 total energy-change (2. order) : 0.2527163E+01  (-0.1575596E+01)
 number of electron     128.9999980 magnetization       9.2342544
 augmentation part       15.7331474 magnetization       8.5888387

 Broyden mixing:
  rms(total) = 0.20664E+01    rms(broyden)= 0.20663E+01
  rms(prec ) = 0.23492E+01
  weight for this iteration     100.00

 eigenvalues of (default mixing * dielectric matrix)
  average eigenvalue GAMMA=   0.8599
  0.4306  1.0745  1.0745

 Free energy of the ion-electron system (eV)
  ---------------------------------------------------
  alpha Z        PSCENC =       250.70068971
  Ewald energy   TEWEN  =     -5338.12860147
  -Hartree energ DENC   =     -2642.92466975
  -exchange      EXHF   =         0.00000000
  -V(xc)+E(xc)   XCENC  =       228.29064382
  PAW double counting   =      9898.63571028    -9659.70347517
  entropy T*S    EENTRO =        -0.00000023
  eigenvalues    EBANDS =      -606.86661297
  atomic energy  EATOM  =      7670.16376216
  Solvation  Ediel_sol  =         0.00000000
  ---------------------------------------------------
  free energy    TOTEN  =      -199.83255362 eV

  energy without entropy =     -199.83255339  energy(sigma->0) =     -199.83255351


--------------------------------------------------------------------------------------------------------




----------------------------------------- Iteration    1(  16)  ---------------------------------------


    POTLOK:  cpu time    0.0127: real time    0.0128
    SETDIJ:  cpu time    0.0046: real time    0.0047
    EDDIAG:  cpu time    0.7157: real time    0.7201
  RMM-DIIS:  cpu time    1.0047: real time    1.0109
    ORTHCH:  cpu time    0.1817: real time    0.1826
       DOS:  cpu time    0.0021: real time    0.0022
    CHARGE:  cpu time    0.0546: real time    0.0549
    MIXING:  cpu time    0.0005: real time    0.0005
    --------------------------------------------
      LOOP:  cpu time    1.9781: real time    2.0029

 eigenvalue-minimisations  : 14536
 total energy-change (2. order) :-0.6696897E-01  (-0.5745963E+00)
 number of electron     128.9999979 magnetization       7.4531899
 augmentation part       15.8255559 magnetization       6.9079085

 Broyden mixing:
  rms(total) = 0.17190E+01    rms(broyden)= 0.17190E+01
  rms(prec ) = 0.18837E+01
  weight for this iteration     100.00

 eigenvalues of (default mixing * dielectric matrix)
  average eigenvalue GAMMA=   0.8654
  1.1563  1.1563  0.3970  0.7521

 Free energy of the ion-electron system (eV)
  ---------------------------------------------------
  alpha Z        PSCENC =       250.70068971
  Ewald energy   TEWEN  =     -5338.12860147
  -Hartree energ DENC   =     -2625.47138447
  -exchange      EXHF   =         0.00000000
  -V(xc)+E(xc)   XCENC  =       225.86665187
  PAW double counting   =      9933.96049698    -9693.40259674
  entropy T*S    EENTRO =        -0.00747491
  eigenvalues    EBANDS =      -623.58106571
  atomic energy  EATOM  =      7670.16376216
  Solvation  Ediel_sol  =         0.00000000
  ---------------------------------------------------
  free energy    TOTEN  =      -199.89952259 eV

  energy without entropy =     -199.89204768  energy(sigma->0) =     -199.89578513


--------------------------------------------------------------------------------------------------------




----------------------------------------- Iteration    1(  17)  ---------------------------------------


    POTLOK:  cpu time    0.0129: real time    0.0130
    SETDIJ:  cpu time    0.0046: real time    0.0047
    EDDIAG:  cpu time    0.7138: real time    0.7183
  RMM-DIIS:  cpu time    1.0487: real time    1.0555
    ORTHCH:  cpu time    0.1818: real time    0.1828
       DOS:  cpu time    0.0008: real time    0.0008
    CHARGE:  cpu time    0.0541: real time    0.0544
    MIXING:  cpu time    0.0005: real time    0.0005
    --------------------------------------------
      LOOP:  cpu time    2.0188: real time    2.0448

 eigenvalue-minimisations  : 15259
 total energy-change (2. order) :-0.8462517E+00  (-0.1589472E+00)
 number of electron     128.9999980 magnetization       6.9384285
 augmentation part       16.1298650 magnetization       6.4886076

 Broyden mixing:
  rms(total) = 0.12131E+01    rms(broyden)= 0.12131E+01
  rms(prec ) = 0.13279E+01
  weight for this iteration     100.00

 eigenvalues of (default mixing * dielectric matrix)
  average eigenvalue GAMMA=   0.7270
  1.0776  1.0776  0.4581  0.5109  0.5109

 Free energy of the ion-electron system (eV)
  ---------------------------------------------------
  alpha Z        PSCENC =       250.70068971
  Ewald energy   TEWEN  =     -5338.12860147
  -Hartree energ DENC   =     -2622.64555205
  -exchange      EXHF   =         0.00000000
  -V(xc)+E(xc)   XCENC  =       225.22140084
  PAW double counting   =     10043.38423395    -9802.38241983
  entropy T*S    EENTRO =        -0.00000000
  eigenvalues    EBANDS =      -627.05928756
  atomic energy  EATOM  =      7670.16376216
  Solvation  Ediel_sol  =         0.00000000
  ---------------------------------------------------
  free energy    TOTEN  =      -200.74577424 eV

  energy without entropy =     -200.74577424  energy(sigma->0) =     -200.74577424


--------------------------------------------------------------------------------------------------------




----------------------------------------- Iteration    1(  18)  ---------------------------------------


    POTLOK:  cpu time    0.0122: real time    0.0123
    SETDIJ:  cpu time    0.0046: real time    0.0046
    EDDIAG:  cpu time    0.7135: real time    0.7180
  RMM-DIIS:  cpu time    1.0205: real time    1.0267
    ORTHCH:  cpu time    0.1818: real time    0.1827
       DOS:  cpu time    0.0007: real time    0.0007
    CHARGE:  cpu time    0.0543: real time    0.0545
    MIXING:  cpu time    0.0006: real time    0.0006
    --------------------------------------------
      LOOP:  cpu time    1.9899: real time    2.0147

 eigenvalue-minimisations  : 14727
 total energy-change (2. order) :-0.1093615E+00  (-0.5571394E-01)
 number of electron     128.9999980 magnetization       6.5180370
 augmentation part       16.2970525 magnetization       6.0975618

 Broyden mixing:
  rms(total) = 0.92034E+00    rms(broyden)= 0.92033E+00
  rms(prec ) = 0.97298E+00
  weight for this iteration     100.00

 eigenvalues of (default mixing * dielectric matrix)
  average eigenvalue GAMMA=   0.8228
  1.1541  1.1541  0.8019  0.8019  0.4075  0.6172

 Free energy of the ion-electron system (eV)
  ---------------------------------------------------
  alpha Z        PSCENC =       250.70068971
  Ewald energy   TEWEN  =     -5338.12860147
  -Hartree energ DENC   =     -2624.68292069
  -exchange      EXHF   =         0.00000000
  -V(xc)+E(xc)   XCENC  =       225.46368748
  PAW double counting   =     10068.74365301    -9827.37260443
  entropy T*S    EENTRO =        -0.00000000
  eigenvalues    EBANDS =      -625.74280155
  atomic energy  EATOM  =      7670.16376216
  Solvation  Ediel_sol  =         0.00000000
  ---------------------------------------------------
  free energy    TOTEN  =      -200.85513578 eV

  energy without entropy =     -200.85513578  energy(sigma->0) =     -200.85513578


--------------------------------------------------------------------------------------------------------




----------------------------------------- Iteration    1(  19)  ---------------------------------------


    POTLOK:  cpu time    0.0130: real time    0.0131
    SETDIJ:  cpu time    0.0047: real time    0.0047
    EDDIAG:  cpu time    0.7145: real time    0.7189
  RMM-DIIS:  cpu time    1.0729: real time    1.0794
    ORTHCH:  cpu time    0.1826: real time    0.1835
       DOS:  cpu time    0.0008: real time    0.0008
    CHARGE:  cpu time    0.0543: real time    0.0546
    MIXING:  cpu time    0.0006: real time    0.0006
    --------------------------------------------
      LOOP:  cpu time    2.0449: real time    2.0697

 eigenvalue-minimisations  : 15817
 total energy-change (2. order) :-0.8704403E-01  (-0.3063813E-01)
 number of electron     128.9999979 magnetization       4.9382602
 augmentation part       16.4001479 magnetization       4.5267298

 Broyden mixing:
  rms(total) = 0.76723E+00    rms(broyden)= 0.76723E+00
  rms(prec ) = 0.80940E+00
  weight for this iteration     100.00

 eigenvalues of (default mixing * dielectric matrix)
  average eigenvalue GAMMA=   0.9628
  1.4862  1.4862  1.0467  1.0467  0.7174  0.4133  0.5428

 Free energy of the ion-electron system (eV)
  ---------------------------------------------------
  alpha Z        PSCENC =       250.70068971
  Ewald energy   TEWEN  =     -5338.12860147
  -Hartree energ DENC   =     -2623.73177606
  -exchange      EXHF   =         0.00000000
  -V(xc)+E(xc)   XCENC  =       225.41556919
  PAW double counting   =     10038.62771882    -9796.81499145
  entropy T*S    EENTRO =        -0.00000000
  eigenvalues    EBANDS =      -627.17455071
  atomic energy  EATOM  =      7670.16376216
  Solvation  Ediel_sol  =         0.00000000
  ---------------------------------------------------
  free energy    TOTEN  =      -200.94217981 eV

  energy without entropy =     -200.94217981  energy(sigma->0) =     -200.94217981


--------------------------------------------------------------------------------------------------------




----------------------------------------- Iteration    1(  20)  ---------------------------------------


    POTLOK:  cpu time    0.0128: real time    0.0129
    SETDIJ:  cpu time    0.0046: real time    0.0047
    EDDIAG:  cpu time    0.7135: real time    0.7181
  RMM-DIIS:  cpu time    1.0026: real time    1.0087
    ORTHCH:  cpu time    0.1820: real time    0.1830
       DOS:  cpu time    0.0014: real time    0.0015
    CHARGE:  cpu time    0.0581: real time    0.0583
    MIXING:  cpu time    0.0006: real time    0.0006
    --------------------------------------------
      LOOP:  cpu time    1.9773: real time    2.0022

 eigenvalue-minimisations  : 14526
 total energy-change (2. order) :-0.5103409E+00  (-0.5193657E-01)
 number of electron     128.9999980 magnetization       2.0044941
 augmentation part       16.6066581 magnetization       1.5956231

 Broyden mixing:
  rms(total) = 0.46812E+00    rms(broyden)= 0.46811E+00
  rms(prec ) = 0.52242E+00
  weight for this iteration     100.00

 eigenvalues of (default mixing * dielectric matrix)
  average eigenvalue GAMMA=   1.0549
  1.9585  1.9585  1.0101  1.0101  1.0336  0.6180  0.4114  0.4387

 Free energy of the ion-electron system (eV)
  ---------------------------------------------------
  alpha Z        PSCENC =       250.70068971
  Ewald energy   TEWEN  =     -5338.12860147
  -Hartree energ DENC   =     -2620.92530789
  -exchange      EXHF   =         0.00000000
  -V(xc)+E(xc)   XCENC  =       225.18623247
  PAW double counting   =      9999.61844218    -9756.69586320
  entropy T*S    EENTRO =        -0.00000028
  eigenvalues    EBANDS =      -631.37187441
  atomic energy  EATOM  =      7670.16376216
  Solvation  Ediel_sol  =         0.00000000
  ---------------------------------------------------
  free energy    TOTEN  =      -201.45252072 eV

  energy without entropy =     -201.45252044  energy(sigma->0) =     -201.45252058


--------------------------------------------------------------------------------------------------------




----------------------------------------- Iteration    1(  21)  ---------------------------------------


    POTLOK:  cpu time    0.0120: real time    0.0121
    SETDIJ:  cpu time    0.0046: real time    0.0046
    EDDIAG:  cpu time    0.7348: real time    0.7394
  RMM-DIIS:  cpu time    1.0612: real time    1.0676
    ORTHCH:  cpu time    0.1827: real time    0.1836
       DOS:  cpu time    0.0007: real time    0.0007
    CHARGE:  cpu time    0.0543: real time    0.0546
    MIXING:  cpu time    0.0007: real time    0.0007
    --------------------------------------------
      LOOP:  cpu time    2.0525: real time    2.0768

 eigenvalue-minimisations  : 15080
 total energy-change (2. order) :-0.2277271E+00  (-0.5587529E-01)
 number of electron     128.9999980 magnetization       1.4430539
 augmentation part       16.8172485 magnetization       1.0979405

 Broyden mixing:
  rms(total) = 0.35431E+00    rms(broyden)= 0.35430E+00
  rms(prec ) = 0.37469E+00
  weight for this iteration     100.00

 eigenvalues of (default mixing * dielectric matrix)
  average eigenvalue GAMMA=   1.0276
  2.1944  1.4589  1.4589  1.0673  1.0673  0.6745  0.5077  0.4099  0.4099

 Free energy of the ion-electron system (eV)
  ---------------------------------------------------
  alpha Z        PSCENC =       250.70068971
  Ewald energy   TEWEN  =     -5338.12860147
  -Hartree energ DENC   =     -2620.00699143
  -exchange      EXHF   =         0.00000000
  -V(xc)+E(xc)   XCENC  =       225.20477527
  PAW double counting   =     10093.21422068    -9848.86238855
  entropy T*S    EENTRO =        -0.00000000
  eigenvalues    EBANDS =      -633.96571416
  atomic energy  EATOM  =      7670.16376216
  Solvation  Ediel_sol  =         0.00000000
  ---------------------------------------------------
  free energy    TOTEN  =      -201.68024779 eV

  energy without entropy =     -201.68024779  energy(sigma->0) =     -201.68024779


--------------------------------------------------------------------------------------------------------




----------------------------------------- Iteration    1(  22)  ---------------------------------------


    POTLOK:  cpu time    0.0126: real time    0.0127
    SETDIJ:  cpu time    0.0046: real time    0.0047
    EDDIAG:  cpu time    0.7143: real time    0.7188
  RMM-DIIS:  cpu time    1.0519: real time    1.0584
    ORTHCH:  cpu time    0.1815: real time    0.1825
       DOS:  cpu time    0.0008: real time    0.0008
    CHARGE:  cpu time    0.0542: real time    0.0545
    MIXING:  cpu time    0.0007: real time    0.0007
    --------------------------------------------
      LOOP:  cpu time    2.0223: real time    2.0478

 eigenvalue-minimisations  : 15354
 total energy-change (2. order) :-0.6782024E-01  (-0.6986016E-02)
 number of electron     128.9999980 magnetization       1.2660076
 augmentation part       16.8298584 magnetization       0.9571497

 Broyden mixing:
  rms(total) = 0.20471E+00    rms(broyden)= 0.20471E+00
  rms(prec ) = 0.22146E+00
  weight for this iteration     100.00

 eigenvalues of (default mixing * dielectric matrix)
  average eigenvalue GAMMA=   1.0387
  2.6430  1.1509  1.1509  1.3232  1.3232  0.7272  0.6111  0.6111  0.4134  0.4333

 Free energy of the ion-electron system (eV)
  ---------------------------------------------------
  alpha Z        PSCENC =       250.70068971
  Ewald energy   TEWEN  =     -5338.12860147
  -Hartree energ DENC   =     -2623.01411793
  -exchange      EXHF   =         0.00000000
[...]
  0.000   0.000   0.000  -0.000  -0.323
 pseudopotential strength for first ion, spin component:           2
  1.181   5.289  -0.001  -0.000   0.000
  5.289  22.640  -0.002  -0.002   0.000
 -0.001  -0.002  -0.323  -0.000   0.000
 -0.000  -0.002  -0.000  -0.323  -0.000
  0.000   0.000   0.000  -0.000  -0.323
 total augmentation occupancy for first ion, spin component:           1
  1.154  -0.031   0.009   0.006  -0.002
 -0.031   0.001  -0.000  -0.000   0.000
  0.009  -0.000   0.117   0.003   0.003
  0.006  -0.000   0.003   0.107   0.001
 -0.002   0.000   0.003   0.001   0.101
 total augmentation occupancy for first ion, spin component:           2
  0.000   0.000  -0.000  -0.000   0.000
  0.000  -0.000  -0.000   0.000   0.000
 -0.000  -0.000   0.000  -0.000  -0.000
 -0.000   0.000  -0.000   0.000   0.000
  0.000   0.000  -0.000   0.000   0.000


------------------------ aborting loop because EDIFF is reached ----------------------------------------


 


 total charge     
 
# of ion     s       p       d       tot
----------------------------------------
  1        0.111   0.235   0.000   0.346
  2        0.108   0.225   0.000   0.333
  3        0.108   0.225   0.000   0.333
  4        0.112   0.235   0.000   0.347
  5        0.099   0.205   0.000   0.304
  6        0.105   0.216   0.000   0.321
  7        0.121   0.258   0.000   0.379
  8        0.114   0.239   0.000   0.352
  9        0.114   0.238   0.000   0.352
 10        0.121   0.258   0.000   0.379
 11        0.117   0.245   0.000   0.363
 12        0.105   0.216   0.000   0.321
 13        0.101   0.216   0.000   0.317
 14        0.730   1.236   4.037   6.003
 15        0.731   1.237   4.037   6.005
 16        0.731   1.236   4.037   6.004
 17        0.607   0.990   3.735   5.332
 18        1.564   3.466   0.000   5.030
 19        1.568   3.467   0.000   5.034
 20        1.564   3.466   0.000   5.030
 21        1.565   3.468   0.000   5.033
 22        1.565   3.468   0.000   5.033
 23        1.565   3.468   0.000   5.033
 24        1.565   3.476   0.000   5.041
 25        1.566   3.474   0.000   5.040
 26        1.564   3.466   0.000   5.029
 27        1.568   3.467   0.000   5.035
 28        1.564   3.466   0.000   5.029
 29        1.553   3.485   0.000   5.038
 30        1.553   3.485   0.000   5.038
 31        1.554   3.489   0.000   5.042
 32        1.565   3.476   0.000   5.041
 33        1.557   3.498   0.000   5.055
------------------------------------------------
tot       29.234  63.293  15.847 108.374
 


 magnetization (x)
 
# of ion     s       p       d       tot
----------------------------------------
  1        0.000   0.000   0.000   0.000
  2        0.000   0.000   0.000   0.000
  3        0.000   0.000   0.000   0.000
  4        0.000   0.000   0.000   0.000
  5        0.000   0.000   0.000   0.000
  6        0.001   0.001   0.000   0.002
  7       -0.000  -0.000   0.000  -0.000
  8       -0.000  -0.000   0.000  -0.000
  9       -0.000  -0.000   0.000  -0.000
 10       -0.000  -0.000   0.000  -0.000
 11        0.000   0.002   0.000   0.002
 12        0.001   0.001   0.000   0.002
 13        0.000  -0.001   0.000  -0.000
 14        0.000   0.000   0.003   0.003
 15       -0.000  -0.000  -0.000  -0.000
 16        0.000   0.000   0.003   0.003
 17        0.008   0.002   0.996   1.007
 18       -0.000  -0.000   0.000  -0.000
 19       -0.000  -0.000   0.000  -0.000
 20       -0.000  -0.000   0.000  -0.000
 21        0.000  -0.000   0.000  -0.000
 22        0.000  -0.000   0.000  -0.000
 23       -0.000   0.000   0.000   0.000
 24       -0.000  -0.000   0.000  -0.000
 25       -0.000   0.000   0.000   0.000
 26        0.000  -0.001   0.000  -0.001
 27       -0.000  -0.000   0.000  -0.000
 28        0.000  -0.001   0.000  -0.001
 29       -0.000  -0.001   0.000  -0.001
 30       -0.000  -0.001   0.000  -0.001
 31       -0.001  -0.017   0.000  -0.017
 32       -0.000  -0.000   0.000  -0.000
 33       -0.001  -0.016   0.000  -0.016
------------------------------------------------
tot        0.008  -0.032   1.002   0.978
 
    CHARGE:  cpu time    0.0546: real time    0.0549
    FORLOC:  cpu time    0.0011: real time    0.0011
    FORNL :  cpu time    0.3737: real time    0.3762
    STRESS:  cpu time    1.1266: real time    1.1336
    FORCOR:  cpu time    0.0127: real time    0.0127
    FORHAR:  cpu time    0.0024: real time    0.0024
    MIXING:  cpu time    0.0010: real time    0.0010
    OFIELD:  cpu time    0.0000: real time    0.0000

 ---------------------------------------------------------------------------------------------

         DFTD3 V3.0 Rev 1        
 IVDW         = 12
 DF pbe       
 parameters
 VDW_S6       =    1.0000
 VDW_S8       =    0.7875
 VDW_A1       =    0.4289
 VDW_A2       =    4.4407
 k1-k3        =   16.0000    1.3333   -4.0000
 VDW_RADIUS   =   50.2022 A
 VDW_CNRADIUS =   21.1671 A
 Edisp (eV)   -6.79747

 E6    (eV) :    -4.1796
 E8    (eV) :    -2.6179
 % E8        : 38.51
    FORVDW:  cpu time    0.2012: real time    0.2037

  FORCE on cell =-STRESS in cart. coord.  units (eV):
  Direction    XX          YY          ZZ          XY          YZ          ZX
  --------------------------------------------------------------------------------------
  Alpha Z   250.70069   250.70069   250.70069
  Ewald   -1699.96566 -1843.97824 -1794.20441    -0.93547     0.17575    -0.03653
  Hartree   945.40094   812.28644   870.39086    -0.91794     0.18439    -0.00474
  E(xc)    -605.29750  -605.99819  -605.48325     0.59116     0.00068    -0.00041
  Local   -1023.90466  -745.09504  -853.97006     4.85321    -0.36426     0.04002
  n-local  -342.86846  -341.03454  -341.87082     1.58434    -0.00890    -0.00230
  augment   178.85039   179.65914   178.78126    -2.44622     0.00050     0.00081
  Kinetic  2304.08770  2300.51219  2302.69508    -2.72893     0.01330     0.00432
  Fock        0.00000     0.00000     0.00000     0.00000     0.00000     0.00000
  vdW        -6.97273    -7.04131    -7.01024    -0.00103     0.00003     0.00001
  -------------------------------------------------------------------------------------
  Total       0.03072     0.01115     0.02910    -0.00089     0.00149     0.00118
  in kB       0.14656     0.05318     0.13886    -0.00423     0.00709     0.00562
  external pressure =        0.11 kB  Pullay stress =        0.00 kB


 VOLUME and BASIS-vectors are now :
 -----------------------------------------------------------------------------
  energy-cutoff  :      600.00
  volume of cell :      335.79
      direct lattice vectors                 reciprocal lattice vectors
     4.930054045 -0.003505917 -0.000523358     0.202837574  0.000061098 -0.000019441
    -0.001637869  5.436795145 -0.002331418     0.000130794  0.183931906 -0.000051057
     0.001199693  0.003476642 12.527700900     0.000008498  0.000034232  0.079823096

  length of vectors
     4.930055319  5.436795892 12.527701440     0.202837585  0.183931960  0.079823104


 FORCES acting on ions
    electron-ion (+dipol)            ewald-force                    non-local-force                 convergence-correction
 -----------------------------------------------------------------------------------------------
   0.251E+00 0.483E+01 0.491E+00   -.273E+00 -.473E+01 -.411E+00   0.235E-01 -.949E-01 -.721E-01   0.285E-04 -.434E-03 -.200E-02
   0.574E+00 -.452E+01 -.211E+01   -.593E+00 0.441E+01 0.204E+01   0.205E-01 0.106E+00 0.768E-01   -.663E-04 0.202E-03 -.185E-02
   0.577E+00 -.453E+01 0.212E+01   -.595E+00 0.442E+01 -.205E+01   0.204E-01 0.107E+00 -.729E-01   -.286E-04 0.135E-03 0.200E-02
   0.265E+00 0.488E+01 -.462E+00   -.286E+00 -.478E+01 0.382E+00   0.211E-01 -.988E-01 0.735E-01   -.100E-04 -.409E-03 0.214E-02
   -.136E+01 -.826E+01 0.406E-01   0.113E+01 0.794E+01 -.404E-01   0.228E+00 0.321E+00 0.473E-04   0.360E-04 0.617E-03 0.121E-03
   0.589E+00 0.715E+01 -.240E+00   -.553E+00 -.707E+01 0.475E-01   -.359E-01 -.679E-01 0.206E+00   -.751E-04 -.282E-03 -.291E-02
   -.255E+01 0.276E+01 0.646E+01   0.232E+01 -.234E+01 -.614E+01   0.229E+00 -.421E+00 -.317E+00   0.238E-04 0.233E-04 0.193E-02
   0.301E+01 -.204E+01 0.208E+01   -.286E+01 0.218E+01 -.186E+01   -.148E+00 -.138E+00 -.221E+00   -.431E-06 0.146E-03 0.181E-02
   0.301E+01 -.204E+01 -.212E+01   -.286E+01 0.218E+01 0.190E+01   -.146E+00 -.137E+00 0.221E+00   -.180E-04 0.195E-03 -.196E-02
   -.257E+01 0.277E+01 -.649E+01   0.234E+01 -.235E+01 0.618E+01   0.231E+00 -.422E+00 0.318E+00   0.546E-04 0.598E-05 -.206E-02
   -.410E+01 -.434E+01 -.260E-01   0.372E+01 0.349E+01 0.268E-01   0.374E+00 0.852E+00 0.253E-03   0.807E-04 -.143E-03 -.130E-03
   0.584E+00 0.715E+01 0.192E+00   -.548E+00 -.707E+01 -.262E-02   -.357E-01 -.669E-01 -.202E+00   -.244E-04 -.189E-03 0.293E-02
   -.659E+01 0.522E+01 -.413E-01   0.570E+01 -.482E+01 0.392E-01   0.893E+00 -.392E+00 0.201E-02   -.201E-03 0.252E-03 -.818E-04
   -.846E+01 -.102E+02 -.519E+01   0.835E+01 0.101E+02 0.522E+01   0.102E+00 0.836E-01 -.813E-02   0.317E-03 0.674E-03 -.121E-01
   -.483E+01 0.789E+01 0.162E+00   0.475E+01 -.788E+01 -.164E+00   0.875E-01 -.135E-02 0.295E-02   -.662E-04 -.660E-03 0.171E-03
   -.838E+01 -.101E+02 0.517E+01   0.828E+01 0.100E+02 -.520E+01   0.103E+00 0.831E-01 0.109E-01   0.257E-03 0.666E-03 0.122E-01
   0.975E+01 -.199E+02 -.192E-01   -.943E+01 0.188E+02 0.243E-01   -.315E+00 0.112E+01 -.421E-02   -.157E-03 -.518E-03 -.270E-03
   -.306E+02 -.637E+02 -.877E+02   0.358E+02 0.716E+02 0.101E+03   -.516E+01 -.796E+01 -.130E+02   0.440E-02 0.772E-02 -.190E-02
   0.939E+02 -.117E+02 -.742E+01   -.111E+03 0.111E+02 0.757E+01   0.174E+02 0.585E+00 -.123E+00   -.137E-01 0.934E-03 -.175E-01
   -.306E+02 -.637E+02 0.878E+02   0.358E+02 0.716E+02 -.101E+03   -.517E+01 -.796E+01 0.130E+02   0.192E-02 0.398E-02 0.782E-02
   -.277E+02 0.640E+02 0.802E+02   0.326E+02 -.717E+02 -.936E+02   -.486E+01 0.769E+01 0.134E+02   0.559E-02 -.122E-01 -.282E-01
   -.278E+02 0.641E+02 -.799E+02   0.326E+02 -.718E+02 0.933E+02   -.488E+01 0.769E+01 -.134E+02   0.616E-02 -.119E-01 0.287E-01
   -.282E+02 -.107E+03 0.267E+00   0.334E+02 0.122E+03 -.281E+00   -.519E+01 -.152E+02 0.147E-01   0.480E-02 0.208E-01 0.480E-03
   -.352E+02 0.103E+03 -.475E+01   0.416E+02 -.118E+03 0.640E+01   -.644E+01 0.144E+02 -.162E+01   0.563E-02 -.136E-01 -.179E-01
   0.891E+02 0.146E+02 0.243E+00   -.106E+03 -.141E+02 -.233E+00   0.169E+02 -.495E+00 -.104E-01   -.174E-01 0.391E-03 0.230E-03
   -.395E+02 -.459E+02 -.684E+02   0.439E+02 0.527E+02 0.822E+02   -.442E+01 -.677E+01 -.138E+02   0.332E-02 0.351E-02 0.166E-01
   0.938E+02 -.117E+02 0.738E+01   -.111E+03 0.111E+02 -.753E+01   0.174E+02 0.589E+00 0.132E+00   -.701E-02 0.103E-02 0.176E-01
   -.395E+02 -.459E+02 0.682E+02   0.439E+02 0.527E+02 -.820E+02   -.441E+01 -.676E+01 0.138E+02   0.531E-02 0.652E-02 -.226E-01
   -.895E+01 0.368E+02 0.856E+02   0.123E+02 -.420E+02 -.966E+02   -.339E+01 0.519E+01 0.109E+02   -.267E-02 0.154E-02 0.132E-01
   -.894E+01 0.368E+02 -.859E+02   0.123E+02 -.420E+02 0.969E+02   -.340E+01 0.518E+01 -.109E+02   -.275E-02 0.162E-02 -.136E-01
   -.594E+01 -.644E+02 -.126E+00   0.893E+01 0.741E+02 0.132E+00   -.299E+01 -.970E+01 -.581E-02   -.455E-02 -.311E-02 -.283E-03
   -.351E+02 0.103E+03 0.454E+01   0.416E+02 -.118E+03 -.619E+01   -.645E+01 0.144E+02 0.162E+01   0.295E-02 -.703E-02 0.183E-01
   0.533E+02 0.868E+01 -.141E+00   -.651E+02 -.125E+02 0.149E+00   0.118E+02 0.384E+01 -.589E-02   0.415E-02 0.127E-02 -.493E-03
 -----------------------------------------------------------------------------------------------
   -.836E+01 -.555E+01 -.627E-02   0.142E-13 0.728E-13 -.213E-13   0.837E+01 0.558E+01 0.193E-01   -.369E-02 0.170E-02 0.229E-03
 
 
 POSITION                                       TOTAL-FORCE (eV/Angst)
 -----------------------------------------------------------------------------------
      0.04407      3.64532      1.63180         0.000564      0.001802      0.000035
      2.50816      1.80523      1.64314         0.001364      0.000642     -0.001224
      2.50928      1.80629      4.74148         0.001384      0.000482      0.001435
      0.04466      3.64589      4.75205        -0.000534      0.001488     -0.000277
      0.05525      0.93479      3.19324         0.000940      0.001292      0.000011
      2.55497      4.46283      0.02462        -0.000153      0.001041      0.001057
      0.10798      3.65117      7.71866         0.001889     -0.001386      0.000961
      2.43384      1.77704      7.87741        -0.000898     -0.001560      0.000707
      2.43380      1.77912     11.03424         0.000672     -0.001297     -0.000977
      0.10733      3.65298     11.19138         0.001101     -0.001871     -0.000758
      0.08677      0.54542      9.45652        -0.000333      0.000365      0.000478
      2.55655      4.46411      6.35706        -0.000355      0.001386     -0.000548
      4.11952      2.56462      9.45470         0.005820      0.004723     -0.000657
      4.91920      0.91523      0.05751         0.000191     -0.000093     -0.004373
      2.47763      4.52023      3.19165         0.004382      0.003097      0.000766
      4.92037      0.91637      6.32731         0.002507     -0.001422      0.003108
      2.45757      4.52461      9.45436         0.001627     -0.002761      0.000152
      0.54416      1.78663      1.45946        -0.000411     -0.000648      0.003332
      3.19429      0.89472      0.07961         0.002273      0.000242      0.002830
      0.54513      1.78761      4.92635        -0.001149     -0.000239     -0.003662
      3.02037      3.68027      1.77121        -0.004562      0.001591      0.002567
      3.02164      3.68097      4.61200        -0.002696      0.000011     -0.002582
      3.02137      0.73518      3.19303        -0.004071      0.000844      0.000389
      0.58014      4.72663      0.11159        -0.004630      0.001601      0.003037
      0.74500      4.52391      3.19238         0.000877      0.001842     -0.000940
      0.48665      1.69305      7.81574        -0.002946      0.000874      0.001349
      3.19545      0.89540      6.30540         0.001295     -0.000800     -0.003440
      0.48647      1.69440     11.09706        -0.002782     -0.000686     -0.000375
      3.09638      3.58846      8.01023         0.002138     -0.005006     -0.003076
      3.09656      3.59040     10.89933         0.000834     -0.004562      0.002659
      3.07514      0.80357      9.45629         0.003273      0.003387     -0.000063
      0.58205      4.72798      6.27033        -0.005404      0.002812     -0.002959
      0.67221      4.22301      9.45506        -0.002209     -0.007190      0.001037
 -----------------------------------------------------------------------------------
    total drift:                               -0.000377      0.036123      0.013263


--------------------------------------------------------------------------------------------------------



  FREE ENERGIE OF THE ION-ELECTRON SYSTEM (eV)
  ---------------------------------------------------
  free  energy   TOTEN  =      -208.56337739 eV

  energy  without entropy=     -208.56337739  energy(sigma->0) =     -208.56337739
 


--------------------------------------------------------------------------------------------------------


    POTLOK:  cpu time    0.0183: real time    0.0184


--------------------------------------------------------------------------------------------------------


 stress matrix after NEB project (eV)
      0.03072     -0.00089      0.00118
     -0.00089      0.01115      0.00149
      0.00118      0.00149      0.02910
  FORCES: max atom, RMS     0.007593    0.004046
  FORCE total and by dimension    0.023240    0.007190
  Stress total and by dimension    0.043857    0.030716
     LOOP+:  cpu time   57.9544: real time   58.7337
    4ORBIT:  cpu time    0.0000: real time    0.0000
 


 total charge     
 
# of ion     s       p       d       tot
----------------------------------------
  1        0.111   0.235   0.000   0.346
  2        0.108   0.225   0.000   0.333
  3        0.108   0.225   0.000   0.333
  4        0.112   0.235   0.000   0.347
  5        0.099   0.205   0.000   0.304
  6        0.105   0.216   0.000   0.321
  7        0.121   0.258   0.000   0.379
  8        0.114   0.239   0.000   0.352
  9        0.114   0.238   0.000   0.352
 10        0.121   0.258   0.000   0.379
 11        0.117   0.245   0.000   0.363
 12        0.105   0.216   0.000   0.321
 13        0.101   0.216   0.000   0.317
 14        0.730   1.236   4.037   6.003
 15        0.731   1.237   4.037   6.005
 16        0.731   1.236   4.037   6.004
 17        0.607   0.990   3.735   5.332
 18        1.564   3.466   0.000   5.030
 19        1.568   3.467   0.000   5.034
 20        1.564   3.466   0.000   5.030
 21        1.565   3.468   0.000   5.033
 22        1.565   3.468   0.000   5.033
 23        1.565   3.468   0.000   5.033
 24        1.565   3.476   0.000   5.041
 25        1.566   3.474   0.000   5.040
 26        1.564   3.466   0.000   5.029
 27        1.568   3.467   0.000   5.035
 28        1.564   3.466   0.000   5.029
 29        1.553   3.485   0.000   5.038
 30        1.553   3.485   0.000   5.038
 31        1.554   3.489   0.000   5.042
 32        1.565   3.476   0.000   5.041
 33        1.557   3.498   0.000   5.055
------------------------------------------------
tot       29.234  63.293  15.847 108.374
 


 magnetization (x)
 
# of ion     s       p       d       tot
----------------------------------------
  1        0.000   0.000   0.000   0.000
  2        0.000   0.000   0.000   0.000
  3        0.000   0.000   0.000   0.000
  4        0.000   0.000   0.000   0.000
  5        0.000   0.000   0.000   0.000
  6        0.001   0.001   0.000   0.002
  7       -0.000  -0.000   0.000  -0.000
  8       -0.000  -0.000   0.000  -0.000
  9       -0.000  -0.000   0.000  -0.000
 10       -0.000  -0.000   0.000  -0.000
 11        0.000   0.002   0.000   0.002
 12        0.001   0.001   0.000   0.002
 13        0.000  -0.001   0.000  -0.000
 14        0.000   0.000   0.003   0.003
 15       -0.000  -0.000  -0.000  -0.000
 16        0.000   0.000   0.003   0.003
 17        0.008   0.002   0.996   1.007
 18       -0.000  -0.000   0.000  -0.000
 19       -0.000  -0.000   0.000  -0.000
 20       -0.000  -0.000   0.000  -0.000
 21        0.000  -0.000   0.000  -0.000
 22        0.000  -0.000   0.000  -0.000
 23       -0.000   0.000   0.000   0.000
 24       -0.000  -0.000   0.000  -0.000
 25       -0.000   0.000   0.000   0.000
 26        0.000  -0.001   0.000  -0.001
 27       -0.000  -0.000   0.000  -0.000
 28        0.000  -0.001   0.000  -0.001
 29       -0.000  -0.001   0.000  -0.001
 30       -0.000  -0.001   0.000  -0.001
 31       -0.001  -0.017   0.000  -0.017
 32       -0.000  -0.000   0.000  -0.000
 33       -0.001  -0.016   0.000  -0.016
------------------------------------------------
tot        0.008  -0.032   1.002   0.978
 

 total amount of memory used by VASP on root node    51925. kBytes
========================================================================

   base      :      30000. kBytes
   nonlr-proj:       3050. kBytes
   fftplans  :        763. kBytes
   grid      :       1950. kBytes
   one-center:        155. kBytes
   wavefun   :      16007. kBytes
 
  
  
 General timing and accounting informations for this job:
 ========================================================
  
                  Total CPU time used (sec):       70.965
                            User time (sec):       67.296
                          System time (sec):        3.668
                         Elapsed time (sec):       75.379
  
                   Maximum memory used (kb):      492600.
                   Average memory used (kb):           0.
  
                          Minor page faults:        87797
                          Major page faults:          215
                 Voluntary context switches:         5986
