 vasp.5.4.1 05Feb16 (build Apr 23 2022 14:15:44) complex                        
  
 executed on           IFC91_ompi date 2024.11.30  11:24:47
 running on   64 total cores
 distrk:  each k-point on   64 cores,    1 groups
 distr:  one band on NCORES_PER_BAND=   8 cores,    8 groups


--------------------------------------------------------------------------------------------------------


 INCAR:
 POTCAR:    PAW_PBE Li 17Jan2003                  
 POTCAR:    PAW_PBE V 08Apr2002                   
 POTCAR:    PAW_PBE O 08Apr2002                   
 POTCAR:    PAW_PBE Li 17Jan2003                  
   VRHFIN =Li: s1p0                                                             
   LEXCH  = PE                                                                  
   EATOM  =     5.3001 eV,    0.3895 Ry                                         
                                                                                
   TITEL  = PAW_PBE Li 17Jan2003                                                
   LULTRA =        F    use ultrasoft PP ?                                      
   IUNSCR =        1    unscreen: 0-lin 1-nonlin 2-no                           
   RPACOR =    1.500    partial core radius                                     
   POMASS =    7.010; ZVAL   =    1.000    mass and valenz                      
   RCORE  =    2.050    outmost cutoff radius                                   
   RWIGS  =    2.600; RWIGS  =    1.376    wigner-seitz radius (au A)           
   ENMAX  =  140.000; ENMIN  =  100.000 eV                                      
   ICORE  =        2    local potential                                         
   LCOR   =        T    correct aug charges                                     
   LPAW   =        T    paw PP                                                  
   EAUG   =  331.638                                                            
   DEXC   =    0.000                                                            
   RMAX   =    2.098    core radius for proj-oper                               
   RAUG   =    1.300    factor for augmentation sphere                          
   RDEP   =    2.094    radius for radial grids                                 
   RDEPT  =    1.810    core radius for aug-charge                              
                                                                                
   Atomic configuration                                                         
    4 entries                                                                   
     n  l   j            E        occ.                                          
     1  0  0.50       -51.8549   2.0000                                         
     2  0  0.50        -2.8742   1.0000                                         
     2  1  0.50        -1.3606   0.0000                                         
     3  2  1.50        -1.3606   0.0000                                         
   Description                                                                  
     l       E           TYP  RCUT    TYP  RCUT                                 
     0     -2.8742052     23  2.050                                             
     0     27.2116520     23  2.050                                             
     1     -1.3605826     23  2.050                                             
     2     -1.3605826     23  2.050                                             
  local pseudopotential read in
  partial core-charges read in
  partial kinetic energy density read in
  atomic valenz-charges read in
  non local Contribution for L=           0  read in
    real space projection operators read in
  non local Contribution for L=           0  read in
    real space projection operators read in
  non local Contribution for L=           1  read in
    real space projection operators read in
    PAW grid and wavefunctions read in
 
   number of l-projection  operators is LMAX  =           3
   number of lm-projection operators is LMMAX =           5
 
 POTCAR:    PAW_PBE V 08Apr2002                   
   VRHFIN =V: p6 d4 s1                                                          
   LEXCH  = PE                                                                  
   EATOM  =   170.8679 eV,   12.5584 Ry                                         
                                                                                
   TITEL  = PAW_PBE V 08Apr2002                                                 
   LULTRA =        F    use ultrasoft PP ?                                      
   IUNSCR =        1    unscreen: 0-lin 1-nonlin 2-no                           
   RPACOR =    2.000    partial core radius                                     
   POMASS =   50.941; ZVAL   =    5.000    mass and valenz                      
   RCORE  =    2.700    outmost cutoff radius                                   
   RWIGS  =    2.500; RWIGS  =    1.323    wigner-seitz radius (au A)           
   ENMAX  =  192.543; ENMIN  =  144.408 eV                                      
   RCLOC  =    1.779    cutoff for local pot                                    
   LCOR   =        T    correct aug charges                                     
   LPAW   =        T    paw PP                                                  
   EAUG   =  358.662                                                            
   DEXC   =    0.000                                                            
   RMAX   =    2.768    core radius for proj-oper                               
   RAUG   =    1.300    factor for augmentation sphere                          
   RDEP   =    2.762    radius for radial grids                                 
   RDEPT  =    2.240    core radius for aug-charge                              
                                                                                
   Atomic configuration                                                         
    9 entries                                                                   
     n  l   j            E        occ.                                          
     1  0  0.50     -5360.7193   2.0000                                         
     2  0  0.50      -598.4546   2.0000                                         
     2  1  1.50      -499.0155   6.0000                                         
     3  0  0.50       -66.5711   2.0000                                         
     3  1  1.50       -40.5282   6.0000                                         
     3  2  2.50        -2.4291   4.0000                                         
     4  0  0.50        -3.8743   1.0000                                         
     4  1  0.50        -2.7212   0.0000                                         
     4  3  2.50        -1.3606   0.0000                                         
   Description                                                                  
     l       E           TYP  RCUT    TYP  RCUT                                 
     2     -2.4290901     23  2.700                                             
     2     -3.7896727     23  2.700                                             
     0     -3.8742752     23  2.700                                             
     0     27.2116520     23  2.700                                             
     1     -2.7211652     23  2.700                                             
     1     27.2116520     23  2.700                                             
  local pseudopotential read in
  partial core-charges read in
  partial kinetic energy density read in
  atomic valenz-charges read in
  non local Contribution for L=           2  read in
    real space projection operators read in
  non local Contribution for L=           2  read in
    real space projection operators read in
  non local Contribution for L=           0  read in
    real space projection operators read in
  non local Contribution for L=           0  read in
    real space projection operators read in
  non local Contribution for L=           1  read in
    real space projection operators read in
  non local Contribution for L=           1  read in
    real space projection operators read in
    PAW grid and wavefunctions read in
 
   number of l-projection  operators is LMAX  =           6
   number of lm-projection operators is LMMAX =          18
 
 POTCAR:    PAW_PBE O 08Apr2002                   
   VRHFIN =O: s2p4                                                              
   LEXCH  = PE                                                                  
   EATOM  =   432.3788 eV,   31.7789 Ry                                         
                                                                                
   TITEL  = PAW_PBE O 08Apr2002                                                 
   LULTRA =        F    use ultrasoft PP ?                                      
   IUNSCR =        1    unscreen: 0-lin 1-nonlin 2-no                           
   RPACOR =    1.200    partial core radius                                     
   POMASS =   16.000; ZVAL   =    6.000    mass and valenz                      
   RCORE  =    1.520    outmost cutoff radius                                   
   RWIGS  =    1.550; RWIGS  =    0.820    wigner-seitz radius (au A)           
   ENMAX  =  400.000; ENMIN  =  300.000 eV                                      
   ICORE  =        2    local potential                                         
   LCOR   =        T    correct aug charges                                     
   LPAW   =        T    paw PP                                                  
   EAUG   =  605.392                                                            
   DEXC   =    0.000                                                            
   RMAX   =    1.553    core radius for proj-oper                               
   RAUG   =    1.300    factor for augmentation sphere                          
   RDEP   =    1.550    radius for radial grids                                 
   RDEPT  =    1.329    core radius for aug-charge                              
                                                                                
   Atomic configuration                                                         
    4 entries                                                                   
     n  l   j            E        occ.                                          
     1  0  0.50      -514.6923   2.0000                                         
     2  0  0.50       -23.9615   2.0000                                         
     2  1  0.50        -9.0305   4.0000                                         
     3  2  1.50        -9.5241   0.0000                                         
   Description                                                                  
     l       E           TYP  RCUT    TYP  RCUT                                 
     0    -23.9615318     23  1.200                                             
     0     -9.5240782     23  1.200                                             
     1     -9.0304911     23  1.520                                             
     1      8.1634956     23  1.520                                             
     2     -9.5240782      7  1.500                                             
  local pseudopotential read in
  partial core-charges read in
  partial kinetic energy density read in
  kinetic energy density of atom read in
  atomic valenz-charges read in
  non local Contribution for L=           0  read in
    real space projection operators read in
  non local Contribution for L=           0  read in
    real space projection operators read in
  non local Contribution for L=           1  read in
    real space projection operators read in
  non local Contribution for L=           1  read in
    real space projection operators read in
    PAW grid and wavefunctions read in
 
   number of l-projection  operators is LMAX  =           4
   number of lm-projection operators is LMMAX =           8
 
 Optimization of the real space projectors (new method)

 maximal supplied QI-value         = 18.33
 optimisation between [QCUT,QGAM] = [ 12.46, 24.93] = [ 43.51,174.03] Ry 
 Optimized for a Real-space Cutoff    1.13 Angstroem

   l    n(q)    QCUT    max X(q) W(low)/X(q) W(high)/X(q)  e(spline) 
   0      8    12.465    33.825    0.12E-03    0.29E-03    0.99E-07
   0      8    12.465     8.944    0.86E-04    0.22E-03    0.72E-07
   1      8    12.465     4.214    0.27E-03    0.11E-03    0.82E-07
 Optimization of the real space projectors (new method)

 maximal supplied QI-value         = 13.98
 optimisation between [QCUT,QGAM] = [ 12.45, 25.03] = [ 43.38,175.46] Ry 
 Optimized for a Real-space Cutoff    1.56 Angstroem

   l    n(q)    QCUT    max X(q) W(low)/X(q) W(high)/X(q)  e(spline) 
   2     11    12.446    96.114    0.19E-03    0.47E-04    0.85E-06
   2     11    12.446    88.986    0.19E-03    0.46E-04    0.86E-06
   0     12    12.446    20.919    0.37E-04    0.64E-04    0.43E-06
   0     12    12.446     9.593    0.25E-04    0.48E-04    0.33E-06
   1     11    12.446    11.615    0.75E-04    0.30E-04    0.59E-06
   1     11    12.446     7.031    0.53E-04    0.23E-04    0.40E-06
 Optimization of the real space projectors (new method)

 maximal supplied QI-value         = 24.76
 optimisation between [QCUT,QGAM] = [ 12.38, 25.00] = [ 42.90,175.06] Ry 
 Optimized for a Real-space Cutoff    1.13 Angstroem

   l    n(q)    QCUT    max X(q) W(low)/X(q) W(high)/X(q)  e(spline) 
   0      8    12.378    20.381    0.16E-03    0.54E-05    0.27E-06
   0      8    12.378    15.268    0.17E-03    0.61E-05    0.29E-06
   1      8    12.378     5.964    0.38E-03    0.23E-03    0.28E-06
   1      8    12.378     5.382    0.33E-03    0.20E-03    0.25E-06
  PAW_PBE Li 17Jan2003                  :
 energy of atom  1       EATOM=   -5.3001
 kinetic energy error for atom=    0.0000 (will be added to EATOM!!)
  PAW_PBE V 08Apr2002                   :
 energy of atom  2       EATOM= -170.8679
 kinetic energy error for atom=    0.0002 (will be added to EATOM!!)
  PAW_PBE O 08Apr2002                   :
 energy of atom  3       EATOM= -432.3788
 kinetic energy error for atom=    0.0168 (will be added to EATOM!!)
 
 
 POSCAR: Li  V  O                                
  positions in cartesian coordinates
  No initial velocities read in
 exchange correlation table for  LEXCH =        8
   RHO(1)=    0.500       N(1)  =     2000
   RHO(2)=  100.500       N(2)  =     4000

 VTST: version 3.1, (03/28/14)

 CHAIN: initializing optimizer
 
 OPT: Using VASP Dynamics algorithm
 CHAIN: Read ICHAIN            0
 
 POSCAR: Li  V  O                                
  positions in cartesian coordinates
  No initial velocities read in
 


--------------------------------------------------------------------------------------------------------


 ion  position               nearest neighbor table
   1  0.010  0.667  0.124-  24 1.93  17 1.94  23 1.95  20 1.96  14 3.02   6 3.04   6 3.04   2 3.05
                             2 3.05  14 3.09  10 3.11  13 3.11  13 3.13   5 3.13   5 3.14   4 3.17
   2  0.510  0.333  0.126-  18 1.93  20 1.94  22 1.95  17 1.96  13 3.02   5 3.04   5 3.04   1 3.05
                             1 3.05  13 3.09   3 3.11  14 3.11  14 3.13   6 3.13   6 3.14   9 3.17
   3  0.510  0.333  0.374-  26 1.93  21 1.94  22 1.95  19 1.96  15 3.02   5 3.04   5 3.04   4 3.05
                             4 3.05  15 3.09   2 3.11  14 3.11  14 3.13  12 3.13  12 3.14   8 3.17
   4  0.010  0.667  0.376-  24 1.93  19 1.94  31 1.95  21 1.96  14 3.02  12 3.04  12 3.04   3 3.05
                             3 3.05  14 3.09   7 3.11  15 3.11  15 3.13   5 3.13   5 3.14   1 3.17
   5  0.011  0.169  0.250-  17 1.96  19 1.96  24 1.97  22 1.97  14 3.03   2 3.04   3 3.04   2 3.04
                             3 3.04  14 3.10   1 3.13   4 3.13   4 3.14   1 3.14  15 3.14  13 3.14
   6  0.511  0.831  0.000-  20 1.96  29 1.96  18 1.97  23 1.97  13 3.03   1 3.04  10 3.04   1 3.04
                            10 3.04  13 3.10   9 3.13   2 3.13   2 3.14   9 3.14  16 3.14  14 3.14
   7  0.010  0.667  0.624-  32 1.93  25 1.94  31 1.95  28 1.96  16 3.02  12 3.04  12 3.04   8 3.05
                             8 3.05  16 3.09   4 3.11  15 3.11  15 3.13  11 3.13  11 3.14  10 3.17
   8  0.510  0.333  0.626-  26 1.93  28 1.94  30 1.95  25 1.96  15 3.02  11 3.04  11 3.04   7 3.05
                             7 3.05  15 3.09   9 3.11  16 3.11  16 3.13  12 3.13  12 3.14   3 3.17
   9  0.510  0.333  0.874-  18 1.93  29 1.94  30 1.95  27 1.96  13 3.02  11 3.04  11 3.04  10 3.05
                            10 3.05  13 3.09   8 3.11  16 3.11  16 3.13   6 3.13   6 3.14   2 3.17
  10  0.010  0.667  0.876-  32 1.93  27 1.94  23 1.95  29 1.96  16 3.02   6 3.04   6 3.04   9 3.05
                             9 3.05  16 3.09   1 3.11  13 3.11  13 3.13  11 3.13  11 3.14   7 3.17
  11  0.011  0.169  0.750-  27 1.96  25 1.96  32 1.97  30 1.97  16 3.03   8 3.04   9 3.04   8 3.04
                             9 3.04  16 3.10  10 3.13   7 3.13  10 3.14   7 3.14  13 3.14  15 3.14
  12  0.511  0.831  0.500-  21 1.96  28 1.96  26 1.97  31 1.97  15 3.03   7 3.04   4 3.04   7 3.04
                             4 3.04  15 3.10   3 3.13   8 3.13   3 3.14   8 3.14  16 3.14  14 3.14
  13  0.002  0.169  0.000-  18 1.73  23 1.74  17 1.74  27 1.74   2 3.02   9 3.02   6 3.03   9 3.09
                             2 3.09   6 3.10   1 3.11  10 3.11   1 3.13  10 3.13   5 3.14  11 3.14
  14  0.502  0.831  0.250-  24 1.73  22 1.74  21 1.74  20 1.74   4 3.02   1 3.02   5 3.03   4 3.09
                             1 3.09   5 3.10   2 3.11   3 3.11   3 3.13   2 3.13   6 3.14  12 3.14
  15  0.002  0.169  0.500-  26 1.73  31 1.74  25 1.74  19 1.74   3 3.02   8 3.02  12 3.03   8 3.09
                             3 3.09  12 3.10   4 3.11   7 3.11   4 3.13   7 3.13  11 3.14   5 3.14
  16  0.502  0.831  0.750-  32 1.73  30 1.74  28 1.74  29 1.74  10 3.02   7 3.02  11 3.03  10 3.09
                             7 3.09  11 3.10   8 3.11   9 3.11   9 3.13   8 3.13   6 3.14  12 3.14
  17  0.112  0.322  0.114-  13 1.74   1 1.94   2 1.96   5 1.96
  18  0.650  0.172  0.000-  13 1.73   9 1.93   2 1.93   6 1.97
  19  0.112  0.322  0.386-  15 1.74   4 1.94   3 1.96   5 1.96
  20  0.612  0.678  0.136-  14 1.74   2 1.94   1 1.96   6 1.96
  21  0.612  0.678  0.364-  14 1.74   3 1.94   4 1.96  12 1.96
  22  0.610  0.136  0.250-  14 1.74   3 1.95   2 1.95   5 1.97
  23  0.110  0.864  0.000-  13 1.74   1 1.95  10 1.95   6 1.97
  24  0.150  0.828  0.250-  14 1.73   4 1.93   1 1.93   5 1.97
  25  0.112  0.322  0.614-  15 1.74   7 1.94   8 1.96  11 1.96
  26  0.650  0.172  0.500-  15 1.73   8 1.93   3 1.93  12 1.97
  27  0.112  0.322  0.886-  13 1.74  10 1.94   9 1.96  11 1.96
  28  0.612  0.678  0.636-  16 1.74   8 1.94   7 1.96  12 1.96
  29  0.612  0.678  0.864-  16 1.74   9 1.94  10 1.96   6 1.96
  30  0.610  0.136  0.750-  16 1.74   9 1.95   8 1.95  11 1.97
  31  0.110  0.864  0.500-  15 1.74   7 1.95   4 1.95  12 1.97
  32  0.150  0.828  0.750-  16 1.73  10 1.93   7 1.93  11 1.97
 
  LATTYP: Found a simple orthorhombic cell.
 ALAT       =     4.9149058127
 B/A-ratio  =     1.1007353143
 C/A-ratio  =     2.5572500255
  
  Lattice vectors:
  
 A1 = (   4.9149058127,   0.0000000000,   0.0000000000)
 A2 = (   0.0000000000,   5.4100103945,   0.0000000000)
 A3 = (   0.0000000000,   0.0000000000,  12.5686430152)


Analysis of symmetry for initial positions (statically):
=====================================================================
 Subroutine PRICEL returns following result:
 
  LATTYP: Found a simple orthorhombic cell.
 ALAT       =     4.9149058127
 B/A-ratio  =     1.1007353143
 C/A-ratio  =     1.2786250128
  
  Lattice vectors:
  
 A1 = (   4.9149058127,   0.0000000000,   0.0000000000)
 A2 = (   0.0000000000,   5.4100103945,   0.0000000000)
 A3 = (   0.0000000000,   0.0000000000,   6.2843215076)
 
   2 primitive cells build up your supercell.
 

 Routine SETGRP: Setting up the symmetry group for a 
 simple orthorhombic supercell.


 Subroutine GETGRP returns: Found  4 space group operations
 (whereof  2 operations were pure point group operations)
 out of a pool of  8 trial point group operations.


The static configuration has the point symmetry C_1h.
 The point group associated with its full space group is C_2v.


Analysis of symmetry for dynamics (positions and initial velocities):
=====================================================================
 Subroutine PRICEL returns following result:
 
  LATTYP: Found a simple orthorhombic cell.
 ALAT       =     4.9149058127
 B/A-ratio  =     1.1007353143
 C/A-ratio  =     1.2786250128
  
  Lattice vectors:
  
 A1 = (   4.9149058127,   0.0000000000,   0.0000000000)
 A2 = (   0.0000000000,   5.4100103945,   0.0000000000)
 A3 = (   0.0000000000,   0.0000000000,   6.2843215076)
 
   2 primitive cells build up your supercell.
 

 Routine SETGRP: Setting up the symmetry group for a 
 simple orthorhombic supercell.


 Subroutine GETGRP returns: Found  4 space group operations
 (whereof  2 operations were pure point group operations)
 out of a pool of  8 trial point group operations.


The dynamic configuration has the point symmetry C_1h.
 The point group associated with its full space group is C_2v.


Analysis of structural, dynamic, and magnetic symmetry:
=====================================================================
 Subroutine PRICEL returns following result:
 
  LATTYP: Found a simple orthorhombic cell.
 ALAT       =     4.9149058127
 B/A-ratio  =     1.1007353143
 C/A-ratio  =     1.2786250128
  
  Lattice vectors:
  
 A1 = (   4.9149058127,   0.0000000000,   0.0000000000)
 A2 = (   0.0000000000,   5.4100103945,   0.0000000000)
 A3 = (   0.0000000000,   0.0000000000,   6.2843215076)
 
   2 primitive cells build up your supercell.
 

 Routine SETGRP: Setting up the symmetry group for a 
 simple orthorhombic supercell.


 Subroutine GETGRP returns: Found  4 space group operations
 (whereof  2 operations were pure point group operations)
 out of a pool of  8 trial point group operations.


The magnetic configuration has the point symmetry C_1h.
 The point group associated with its full space group is C_2v.


 Subroutine INISYM returns: Found  4 space group operations
 (whereof  2 operations are pure point group operations),
 and found     2 'primitive' translations

 
 
 KPOINTS: KPOINTS created by Atomic Simulation Env

Automatic generation of k-mesh.
Space group operators:
 irot       det(A)        alpha          n_x          n_y          n_z        tau_x        tau_y        tau_z
    1     1.000000     0.000000     1.000000     0.000000     0.000000     0.000000     0.000000     0.000000
    2    -1.000000   180.000000    -0.000000    -0.000000     1.000000     0.000000     0.000000     0.000000
    3    -1.000000   180.000000     0.000000     1.000000     0.000000     0.500000     0.000000     0.250000
    4     1.000000   180.000000     1.000000    -0.000000     0.000000     0.500000     0.000000     0.250000
 
 Subroutine IBZKPT returns following result:
 ===========================================
 
 Found    100 irreducible k-points:
 
 Following reciprocal coordinates:
            Coordinates               Weight
  0.000000  0.000000  0.000000      1.000000
  0.125000 -0.000000  0.000000      2.000000
  0.250000 -0.000000  0.000000      2.000000
  0.375000 -0.000000  0.000000      2.000000
  0.500000 -0.000000  0.000000      1.000000
  0.000000  0.125000  0.000000      2.000000
  0.125000  0.125000  0.000000      4.000000
  0.250000  0.125000  0.000000      4.000000
  0.375000  0.125000  0.000000      4.000000
  0.500000  0.125000  0.000000      2.000000
  0.000000  0.250000  0.000000      2.000000
  0.125000  0.250000  0.000000      4.000000
  0.250000  0.250000  0.000000      4.000000
  0.375000  0.250000  0.000000      4.000000
  0.500000  0.250000  0.000000      2.000000
  0.000000  0.375000  0.000000      2.000000
  0.125000  0.375000  0.000000      4.000000
  0.250000  0.375000  0.000000      4.000000
  0.375000  0.375000  0.000000      4.000000
  0.500000  0.375000  0.000000      2.000000
  0.000000  0.500000  0.000000      1.000000
  0.125000  0.500000  0.000000      2.000000
  0.250000  0.500000  0.000000      2.000000
  0.375000  0.500000  0.000000      2.000000
  0.500000  0.500000  0.000000      1.000000
 -0.000000  0.000000  0.166667      2.000000
  0.125000  0.000000  0.166667      4.000000
  0.250000 -0.000000  0.166667      4.000000
  0.375000 -0.000000  0.166667      4.000000
  0.500000 -0.000000  0.166667      2.000000
 -0.000000  0.125000  0.166667      4.000000
  0.125000  0.125000  0.166667      8.000000
  0.250000  0.125000  0.166667      8.000000
  0.375000  0.125000  0.166667      8.000000
  0.500000  0.125000  0.166667      4.000000
 -0.000000  0.250000  0.166667      4.000000
  0.125000  0.250000  0.166667      8.000000
  0.250000  0.250000  0.166667      8.000000
  0.375000  0.250000  0.166667      8.000000
  0.500000  0.250000  0.166667      4.000000
 -0.000000  0.375000  0.166667      4.000000
  0.125000  0.375000  0.166667      8.000000
  0.250000  0.375000  0.166667      8.000000
  0.375000  0.375000  0.166667      8.000000
  0.500000  0.375000  0.166667      4.000000
 -0.000000  0.500000  0.166667      2.000000
  0.125000  0.500000  0.166667      4.000000
  0.250000  0.500000  0.166667      4.000000
  0.375000  0.500000  0.166667      4.000000
  0.500000  0.500000  0.166667      2.000000
 -0.000000  0.000000  0.333333      2.000000
  0.125000  0.000000  0.333333      4.000000
  0.250000 -0.000000  0.333333      4.000000
  0.375000 -0.000000  0.333333      4.000000
  0.500000  0.000000  0.333333      2.000000
 -0.000000  0.125000  0.333333      4.000000
  0.125000  0.125000  0.333333      8.000000
  0.250000  0.125000  0.333333      8.000000
  0.375000  0.125000  0.333333      8.000000
  0.500000  0.125000  0.333333      4.000000
 -0.000000  0.250000  0.333333      4.000000
  0.125000  0.250000  0.333333      8.000000
  0.250000  0.250000  0.333333      8.000000
  0.375000  0.250000  0.333333      8.000000
  0.500000  0.250000  0.333333      4.000000
 -0.000000  0.375000  0.333333      4.000000
  0.125000  0.375000  0.333333      8.000000
  0.250000  0.375000  0.333333      8.000000
  0.375000  0.375000  0.333333      8.000000
  0.500000  0.375000  0.333333      4.000000
 -0.000000  0.500000  0.333333      2.000000
  0.125000  0.500000  0.333333      4.000000
  0.250000  0.500000  0.333333      4.000000
  0.375000  0.500000  0.333333      4.000000
  0.500000  0.500000  0.333333      2.000000
 -0.000000  0.000000  0.500000      1.000000
  0.125000 -0.000000  0.500000      2.000000
  0.250000  0.000000  0.500000      2.000000
  0.375000 -0.000000  0.500000      2.000000
  0.500000  0.000000  0.500000      1.000000
 -0.000000  0.125000  0.500000      2.000000
  0.125000  0.125000  0.500000      4.000000
  0.250000  0.125000  0.500000      4.000000
  0.375000  0.125000  0.500000      4.000000
  0.500000  0.125000  0.500000      2.000000
 -0.000000  0.250000  0.500000      2.000000
  0.125000  0.250000  0.500000      4.000000
  0.250000  0.250000  0.500000      4.000000
  0.375000  0.250000  0.500000      4.000000
  0.500000  0.250000  0.500000      2.000000
 -0.000000  0.375000  0.500000      2.000000
  0.125000  0.375000  0.500000      4.000000
  0.250000  0.375000  0.500000      4.000000
  0.375000  0.375000  0.500000      4.000000
  0.500000  0.375000  0.500000      2.000000
 -0.000000  0.500000  0.500000      1.000000
  0.125000  0.500000  0.500000      2.000000
  0.250000  0.500000  0.500000      2.000000
  0.375000  0.500000  0.500000      2.000000
  0.500000  0.500000  0.500000      1.000000
 
 Following cartesian coordinates:
            Coordinates               Weight
  0.000000  0.000000  0.000000      1.000000
  0.025433 -0.000000  0.000000      2.000000
  0.050866 -0.000000  0.000000      2.000000
  0.076299 -0.000000  0.000000      2.000000
  0.101731 -0.000000  0.000000      1.000000
  0.000000  0.023105  0.000000      2.000000
  0.025433  0.023105  0.000000      4.000000
  0.050866  0.023105  0.000000      4.000000
  0.076299  0.023105  0.000000      4.000000
  0.101731  0.023105  0.000000      2.000000
  0.000000  0.046211  0.000000      2.000000
  0.025433  0.046211  0.000000      4.000000
  0.050866  0.046211  0.000000      4.000000
  0.076299  0.046211  0.000000      4.000000
  0.101731  0.046211  0.000000      2.000000
  0.000000  0.069316  0.000000      2.000000
  0.025433  0.069316  0.000000      4.000000
  0.050866  0.069316  0.000000      4.000000
  0.076299  0.069316  0.000000      4.000000
  0.101731  0.069316  0.000000      2.000000
  0.000000  0.092421  0.000000      1.000000
  0.025433  0.092421  0.000000      2.000000
  0.050866  0.092421  0.000000      2.000000
  0.076299  0.092421  0.000000      2.000000
  0.101731  0.092421  0.000000      1.000000
 -0.000000 -0.000000  0.013261      2.000000
  0.025433 -0.000000  0.013261      4.000000
  0.050866 -0.000000  0.013261      4.000000
  0.076299 -0.000000  0.013261      4.000000
  0.101731 -0.000000  0.013261      2.000000
 -0.000000  0.023105  0.013261      4.000000
  0.025433  0.023105  0.013261      8.000000
  0.050866  0.023105  0.013261      8.000000
  0.076299  0.023105  0.013261      8.000000
  0.101731  0.023105  0.013261      4.000000
 -0.000000  0.046211  0.013261      4.000000
  0.025433  0.046211  0.013261      8.000000
  0.050866  0.046211  0.013261      8.000000
  0.076299  0.046211  0.013261      8.000000
  0.101731  0.046211  0.013261      4.000000
 -0.000000  0.069316  0.013261      4.000000
  0.025433  0.069316  0.013261      8.000000
  0.050866  0.069316  0.013261      8.000000
  0.076299  0.069316  0.013261      8.000000
  0.101731  0.069316  0.013261      4.000000
 -0.000000  0.092421  0.013261      2.000000
  0.025433  0.092421  0.013261      4.000000
  0.050866  0.092421  0.013261      4.000000
  0.076299  0.092421  0.013261      4.000000
  0.101731  0.092421  0.013261      2.000000
 -0.000000 -0.000000  0.026521      2.000000
  0.025433 -0.000000  0.026521      4.000000
  0.050866 -0.000000  0.026521      4.000000
  0.076299 -0.000000  0.026521      4.000000
  0.101731 -0.000000  0.026521      2.000000
 -0.000000  0.023105  0.026521      4.000000
  0.025433  0.023105  0.026521      8.000000
  0.050866  0.023105  0.026521      8.000000
  0.076299  0.023105  0.026521      8.000000
  0.101731  0.023105  0.026521      4.000000
 -0.000000  0.046211  0.026521      4.000000
  0.025433  0.046211  0.026521      8.000000
  0.050866  0.046211  0.026521      8.000000
  0.076299  0.046211  0.026521      8.000000
  0.101731  0.046211  0.026521      4.000000
 -0.000000  0.069316  0.026521      4.000000
  0.025433  0.069316  0.026521      8.000000
  0.050866  0.069316  0.026521      8.000000
  0.076299  0.069316  0.026521      8.000000
  0.101731  0.069316  0.026521      4.000000
 -0.000000  0.092421  0.026521      2.000000
  0.025433  0.092421  0.026521      4.000000
  0.050866  0.092421  0.026521      4.000000
  0.076299  0.092421  0.026521      4.000000
  0.101731  0.092421  0.026521      2.000000
 -0.000000 -0.000000  0.039782      1.000000
  0.025433 -0.000000  0.039782      2.000000
  0.050866 -0.000000  0.039782      2.000000
  0.076299 -0.000000  0.039782      2.000000
  0.101731 -0.000000  0.039782      1.000000
 -0.000000  0.023105  0.039782      2.000000
  0.025433  0.023105  0.039782      4.000000
  0.050866  0.023105  0.039782      4.000000
  0.076299  0.023105  0.039782      4.000000
  0.101731  0.023105  0.039782      2.000000
 -0.000000  0.046211  0.039782      2.000000
  0.025433  0.046211  0.039782      4.000000
  0.050866  0.046211  0.039782      4.000000
  0.076299  0.046211  0.039782      4.000000
  0.101731  0.046211  0.039782      2.000000
 -0.000000  0.069316  0.039782      2.000000
  0.025433  0.069316  0.039782      4.000000
  0.050866  0.069316  0.039782      4.000000
  0.076299  0.069316  0.039782      4.000000
  0.101731  0.069316  0.039782      2.000000
 -0.000000  0.092421  0.039782      1.000000
  0.025433  0.092421  0.039782      2.000000
  0.050866  0.092421  0.039782      2.000000
  0.076299  0.092421  0.039782      2.000000
  0.101731  0.092421  0.039782      1.000000
 
 TETIRR: Found   1152 inequivalent tetrahedra from     2304


--------------------------------------------------------------------------------------------------------




 Dimension of arrays:
   k-points           NKPTS =    100   k-points in BZ     NKDIM =    100   number of bands    NBANDS=    104
   number of dos      NEDOS =   3000   number of ions     NIONS =     32
   non local maximal  LDIM  =      6   non local SUM 2l+1 LMDIM =     18
   total plane-waves  NPLWV =  76800
   max r-space proj   IRMAX =   3706   max aug-charges    IRDMAX=  14134
   dimension x,y,z NGX =    30 NGY =   32 NGZ =   80
   dimension x,y,z NGXF=    60 NGYF=   64 NGZF=  160
   support grid    NGXF=    60 NGYF=   64 NGZF=  160
   ions per type =              12   4  16
 NGX,Y,Z   is equivalent  to a cutoff of  10.15,  9.83, 10.58 a.u.
 NGXF,Y,Z  is equivalent  to a cutoff of  20.29, 19.67, 21.16 a.u.


 I would recommend the setting:
   dimension x,y,z NGX =    29 NGY =   32 NGZ =   75
 SYSTEM =  unknown system                          
 POSCAR =  Li  V  O                                

 Startparameter for this run:
   NWRITE =      2    write-flag & timer
   PREC   = normal    normal or accurate (medium, high low for compatibility)
   ISTART =      1    job   : 0-new  1-cont  2-samecut
   ICHARG =     11    charge: 1-file 2-atom 10-const
   ISPIN  =      2    spin polarized calculation?
   LNONCOLLINEAR =      F non collinear calculations
   LSORBIT =      F    spin-orbit coupling
   INIWAV =      1    electr: 0-lowe 1-rand  2-diag
   LASPH  =      F    aspherical Exc in radial PAW
   METAGGA=      F    non-selfconsistent MetaGGA calc.

 Electronic Relaxation 1
   ENCUT  =  600.0 eV  44.10 Ry    6.64 a.u.   9.82 10.81 25.10*2*pi/ulx,y,z
   ENINI  =  600.0     initial cutoff
   ENAUG  =  605.4 eV  augmentation charge cutoff
   NELM   =     60;   NELMIN=  2; NELMDL=  0     # of ELM steps 
   EDIFF  = 0.1E-05   stopping-criterion for ELM
   LREAL  =      T    real-space projection
   NLSPLINE    = F    spline interpolate recip. space projectors
   LCOMPAT=      F    compatible to vasp.4.4
   GGA_COMPAT  = T    GGA compatible to vasp.4.4-vasp.4.6
   LMAXPAW     = -100 max onsite density
   LMAXMIX     =    4 max onsite mixed and CHGCAR
   VOSKOWN=      0    Vosko Wilk Nusair interpolation
   ROPT   =   -0.00050  -0.00050  -0.00050
 Ionic relaxation
   EDIFFG = 0.1E-04   stopping-criterion for IOM
   NSW    =      0    number of steps for IOM
   NBLOCK =      1;   KBLOCK =      1    inner block; outer block 
   IBRION =     -1    ionic relax: 0-MD 1-quasi-New 2-CG
   NFREE  =      0    steps in history (QN), initial steepest desc. (CG)
   ISIF   =      2    stress and relaxation
   IWAVPR =     10    prediction:  0-non 1-charg 2-wave 3-comb
   ISYM   =      2    0-nonsym 1-usesym 2-fastsym
   LCORR  =      T    Harris-Foulkes like correction to forces

   POTIM  = 0.5000    time-step for ionic-motion
   TEIN   =    0.0    initial temperature
   TEBEG  =    0.0;   TEEND  =   0.0 temperature during run
   SMASS  =  -3.00    Nose mass-parameter (am)
   estimated Nose-frequenzy (Omega)   =  0.10E-29 period in steps =****** mass=  -0.552E-27a.u.
   SCALEE = 1.0000    scale energy and forces
   NPACO  =    256;   APACO  = 16.0  distance and # of slots for P.C.
   PSTRESS=    0.0 pullay stress

  Mass of Ions in am
   POMASS =   7.01 50.94 16.00
  Ionic Valenz
   ZVAL   =   1.00  5.00  6.00
  Atomic Wigner-Seitz radii
   RWIGS  =  -1.00 -1.00 -1.00
  virtual crystal weights 
   VCA    =   1.00  1.00  1.00
   NELECT =     128.0000    total number of electrons
   NUPDOWN=      -1.0000    fix difference up-down

 DOS related values:
   EMIN   = -20.00;   EMAX   = 15.00  energy-range for DOS
   EFERMI =   0.00
   ISMEAR =    -5;   SIGMA  =   0.03  broadening in eV -4-tet -1-fermi 0-gaus

 Electronic relaxation 2 (details)
   IALGO  =     48    algorithm
   LDIAG  =      T    sub-space diagonalisation (order eigenvalues)
   LSUBROT=      F    optimize rotation matrix (better conditioning)
   TURBO    =      0    0=normal 1=particle mesh
   IRESTART =      0    0=no restart 2=restart with 2 vectors
   NREBOOT  =      0    no. of reboots
   NMIN     =      0    reboot dimension
   EREF     =   0.00    reference energy to select bands
   IMIX   =      4    mixing-type and parameters
     AMIX     =   0.40;   BMIX     =  1.00
     AMIX_MAG =   1.60;   BMIX_MAG =  1.00
     AMIN     =   0.10
     WC   =   100.;   INIMIX=   1;  MIXPRE=   1;  MAXMIX= -45

 Intra band minimization:
   WEIMIN = 0.0000     energy-eigenvalue tresh-hold
   EBREAK =  0.24E-08  absolut break condition
   DEPER  =   0.30     relativ break condition  

   TIME   =   0.40     timestep for ELM

  volume/ion in A,a.u.               =      10.44        70.48
  Fermi-wavevector in a.u.,A,eV,Ry     =   1.188897  2.246690 19.231512  1.413476
  Thomas-Fermi vector in A             =   2.325016
 
 Write flags
   LWAVE  =      F    write WAVECAR
   LCHARG =      F    write CHGCAR
   LVTOT  =      F    write LOCPOT, total local potential
   LVHAR  =      F    write LOCPOT, Hartree potential only
   LELF   =      F    write electronic localiz. function (ELF)
   LORBIT =     11    0 simple, 1 ext, 2 COOP (PROOUT)


 Dipole corrections
   LMONO  =      F    monopole corrections only (constant potential shift)
   LDIPOL =      F    correct potential (dipole corrections)
   IDIPOL =      0    1-x, 2-y, 3-z, 4-all directions 
   EPSILON=  1.0000000 bulk dielectric constant

 LDA+U is selected, type is set to LDAUTYPE =  2
   angular momentum for each species LDAUL =    -1    2   -1
   U (eV)           for each species LDAUU =   0.0  3.0  0.0
   J (eV)           for each species LDAUJ =   0.0  0.0  0.0
 Exchange correlation treatment:
   GGA     =    PE    GGA type
   LEXCH   =     8    internal setting for exchange type
   VOSKOWN=      0    Vosko Wilk Nusair interpolation
   LHFCALC =     F    Hartree Fock is set to
   LHFONE  =     F    Hartree Fock one center treatment
   AEXX    =    0.0000 exact exchange contribution

 Linear response parameters
   LEPSILON=     F    determine dielectric tensor
   LRPA    =     F    only Hartree local field effects (RPA)
   LNABLA  =     F    use nabla operator in PAW spheres
   LVEL    =     F    velocity operator in full k-point grid
   LINTERFAST=   F  fast interpolation
   KINTER  =     0    interpolate to denser k-point grid
   CSHIFT  =0.1000    complex shift for real part using Kramers Kronig
   OMEGAMAX=  -1.0    maximum frequency
   DEG_THRESHOLD= 0.2000000E-02 threshold for treating states as degnerate
   RTIME   =    0.100 relaxation time in fs

 Orbital magnetization related:
   ORBITALMAG=     F  switch on orbital magnetization
   LCHIMAG   =     F  perturbation theory with respect to B field
   DQ        =  0.001000  dq finite difference perturbation B field



--------------------------------------------------------------------------------------------------------


 Static calculation
 charge density and potential remain constant during run
 spin polarized calculation
 RMM-DIIS sequential band-by-band
 perform sub-space diagonalisation
    before iterative eigenvector-optimisation
 no mixing
 using additional bands           40
 real space projection scheme for non local part
 use partial core corrections
 calculate Harris-corrections to forces 
   (improved forces if not selfconsistent)
 use gradient corrections 
 WARNING: stress and forces are not correct
  (second derivative of E(xc) not defined)
 use of overlap-Matrix (Vanderbilt PP)
 Fermi weights with tetrahedron method with Bloechl corrections


--------------------------------------------------------------------------------------------------------


  energy-cutoff  :      600.00
  volume of cell :      334.20
      direct lattice vectors                 reciprocal lattice vectors
     4.914905813  0.000000000  0.000000000     0.203462699 -0.000000000  0.000000000
     0.000000000  5.410010394  0.000000000     0.000000000  0.184842528  0.000000000
     0.000000000  0.000000000 12.568643015    -0.000000000 -0.000000000  0.079563084

  length of vectors
     4.914905813  5.410010394 12.568643015     0.203462699  0.184842528  0.079563084


 
 old parameters found on file WAVECAR:
  energy-cutoff  :      600.00
  volume of cell :      334.20
      direct lattice vectors                 reciprocal lattice vectors
     4.914905813  0.000000000  0.000000000     0.203462699 -0.000000000  0.000000000
     0.000000000  5.410010394  0.000000000     0.000000000  0.184842528  0.000000000
     0.000000000  0.000000000 12.568643015    -0.000000000 -0.000000000  0.079563084

  length of vectors

 
 k-points in units of 2pi/SCALE and weight: KPOINTS created by Atomic Simulation Env
   0.00000000  0.00000000  0.00000000       0.003
   0.02543284 -0.00000000  0.00000000       0.005
   0.05086567 -0.00000000  0.00000000       0.005
   0.07629851 -0.00000000  0.00000000       0.005
   0.10173135 -0.00000000  0.00000000       0.003
   0.00000000  0.02310532  0.00000000       0.005
   0.02543284  0.02310532  0.00000000       0.010
   0.05086567  0.02310532  0.00000000       0.010
   0.07629851  0.02310532  0.00000000       0.010
   0.10173135  0.02310532  0.00000000       0.005
   0.00000000  0.04621063  0.00000000       0.005
   0.02543284  0.04621063  0.00000000       0.010
   0.05086567  0.04621063  0.00000000       0.010
   0.07629851  0.04621063  0.00000000       0.010
   0.10173135  0.04621063  0.00000000       0.005
   0.00000000  0.06931595  0.00000000       0.005
   0.02543284  0.06931595  0.00000000       0.010
   0.05086567  0.06931595  0.00000000       0.010
   0.07629851  0.06931595  0.00000000       0.010
   0.10173135  0.06931595  0.00000000       0.005
   0.00000000  0.09242126  0.00000000       0.003
   0.02543284  0.09242126  0.00000000       0.005
   0.05086567  0.09242126  0.00000000       0.005
   0.07629851  0.09242126  0.00000000       0.005
   0.10173135  0.09242126  0.00000000       0.003
  -0.00000000 -0.00000000  0.01326051       0.005
   0.02543284 -0.00000000  0.01326051       0.010
   0.05086567 -0.00000000  0.01326051       0.010
   0.07629851 -0.00000000  0.01326051       0.010
   0.10173135 -0.00000000  0.01326051       0.005
  -0.00000000  0.02310532  0.01326051       0.010
   0.02543284  0.02310532  0.01326051       0.021
   0.05086567  0.02310532  0.01326051       0.021
   0.07629851  0.02310532  0.01326051       0.021
   0.10173135  0.02310532  0.01326051       0.010
  -0.00000000  0.04621063  0.01326051       0.010
   0.02543284  0.04621063  0.01326051       0.021
   0.05086567  0.04621063  0.01326051       0.021
   0.07629851  0.04621063  0.01326051       0.021
   0.10173135  0.04621063  0.01326051       0.010
  -0.00000000  0.06931595  0.01326051       0.010
   0.02543284  0.06931595  0.01326051       0.021
   0.05086567  0.06931595  0.01326051       0.021
   0.07629851  0.06931595  0.01326051       0.021
   0.10173135  0.06931595  0.01326051       0.010
  -0.00000000  0.09242126  0.01326051       0.005
   0.02543284  0.09242126  0.01326051       0.010
   0.05086567  0.09242126  0.01326051       0.010
   0.07629851  0.09242126  0.01326051       0.010
   0.10173135  0.09242126  0.01326051       0.005
  -0.00000000 -0.00000000  0.02652103       0.005
   0.02543284 -0.00000000  0.02652103       0.010
   0.05086567 -0.00000000  0.02652103       0.010
   0.07629851 -0.00000000  0.02652103       0.010
   0.10173135 -0.00000000  0.02652103       0.005
  -0.00000000  0.02310532  0.02652103       0.010
   0.02543284  0.02310532  0.02652103       0.021
   0.05086567  0.02310532  0.02652103       0.021
   0.07629851  0.02310532  0.02652103       0.021
   0.10173135  0.02310532  0.02652103       0.010
  -0.00000000  0.04621063  0.02652103       0.010
   0.02543284  0.04621063  0.02652103       0.021
   0.05086567  0.04621063  0.02652103       0.021
   0.07629851  0.04621063  0.02652103       0.021
   0.10173135  0.04621063  0.02652103       0.010
  -0.00000000  0.06931595  0.02652103       0.010
   0.02543284  0.06931595  0.02652103       0.021
   0.05086567  0.06931595  0.02652103       0.021
   0.07629851  0.06931595  0.02652103       0.021
   0.10173135  0.06931595  0.02652103       0.010
  -0.00000000  0.09242126  0.02652103       0.005
   0.02543284  0.09242126  0.02652103       0.010
   0.05086567  0.09242126  0.02652103       0.010
   0.07629851  0.09242126  0.02652103       0.010
   0.10173135  0.09242126  0.02652103       0.005
  -0.00000000 -0.00000000  0.03978154       0.003
   0.02543284 -0.00000000  0.03978154       0.005
   0.05086567 -0.00000000  0.03978154       0.005
   0.07629851 -0.00000000  0.03978154       0.005
   0.10173135 -0.00000000  0.03978154       0.003
  -0.00000000  0.02310532  0.03978154       0.005
   0.02543284  0.02310532  0.03978154       0.010
   0.05086567  0.02310532  0.03978154       0.010
   0.07629851  0.02310532  0.03978154       0.010
   0.10173135  0.02310532  0.03978154       0.005
  -0.00000000  0.04621063  0.03978154       0.005
   0.02543284  0.04621063  0.03978154       0.010
   0.05086567  0.04621063  0.03978154       0.010
   0.07629851  0.04621063  0.03978154       0.010
   0.10173135  0.04621063  0.03978154       0.005
  -0.00000000  0.06931595  0.03978154       0.005
   0.02543284  0.06931595  0.03978154       0.010
   0.05086567  0.06931595  0.03978154       0.010
   0.07629851  0.06931595  0.03978154       0.010
   0.10173135  0.06931595  0.03978154       0.005
  -0.00000000  0.09242126  0.03978154       0.003
   0.02543284  0.09242126  0.03978154       0.005
   0.05086567  0.09242126  0.03978154       0.005
   0.07629851  0.09242126  0.03978154       0.005
   0.10173135  0.09242126  0.03978154       0.003
 
 k-points in reciprocal lattice and weights: KPOINTS created by Atomic Simulation Env
   0.00000000  0.00000000  0.00000000       0.003
   0.12500000 -0.00000000  0.00000000       0.005
   0.25000000 -0.00000000  0.00000000       0.005
   0.37500000 -0.00000000  0.00000000       0.005
   0.50000000 -0.00000000  0.00000000       0.003
   0.00000000  0.12500000  0.00000000       0.005
   0.12500000  0.12500000  0.00000000       0.010
   0.25000000  0.12500000  0.00000000       0.010
   0.37500000  0.12500000  0.00000000       0.010
   0.50000000  0.12500000  0.00000000       0.005
   0.00000000  0.25000000  0.00000000       0.005
   0.12500000  0.25000000  0.00000000       0.010
   0.25000000  0.25000000  0.00000000       0.010
   0.37500000  0.25000000  0.00000000       0.010
   0.50000000  0.25000000  0.00000000       0.005
   0.00000000  0.37500000  0.00000000       0.005
   0.12500000  0.37500000  0.00000000       0.010
   0.25000000  0.37500000  0.00000000       0.010
   0.37500000  0.37500000  0.00000000       0.010
   0.50000000  0.37500000  0.00000000       0.005
   0.00000000  0.50000000  0.00000000       0.003
   0.12500000  0.50000000  0.00000000       0.005
   0.25000000  0.50000000  0.00000000       0.005
   0.37500000  0.50000000  0.00000000       0.005
   0.50000000  0.50000000  0.00000000       0.003
  -0.00000000  0.00000000  0.16666667       0.005
   0.12500000  0.00000000  0.16666667       0.010
   0.25000000 -0.00000000  0.16666667       0.010
   0.37500000 -0.00000000  0.16666667       0.010
   0.50000000 -0.00000000  0.16666667       0.005
  -0.00000000  0.12500000  0.16666667       0.010
   0.12500000  0.12500000  0.16666667       0.021
   0.25000000  0.12500000  0.16666667       0.021
   0.37500000  0.12500000  0.16666667       0.021
   0.50000000  0.12500000  0.16666667       0.010
  -0.00000000  0.25000000  0.16666667       0.010
   0.12500000  0.25000000  0.16666667       0.021
   0.25000000  0.25000000  0.16666667       0.021
   0.37500000  0.25000000  0.16666667       0.021
   0.50000000  0.25000000  0.16666667       0.010
  -0.00000000  0.37500000  0.16666667       0.010
   0.12500000  0.37500000  0.16666667       0.021
   0.25000000  0.37500000  0.16666667       0.021
   0.37500000  0.37500000  0.16666667       0.021
   0.50000000  0.37500000  0.16666667       0.010
  -0.00000000  0.50000000  0.16666667       0.005
   0.12500000  0.50000000  0.16666667       0.010
   0.25000000  0.50000000  0.16666667       0.010
   0.37500000  0.50000000  0.16666667       0.010
   0.50000000  0.50000000  0.16666667       0.005
  -0.00000000  0.00000000  0.33333333       0.005
   0.12500000  0.00000000  0.33333333       0.010
   0.25000000 -0.00000000  0.33333333       0.010
   0.37500000 -0.00000000  0.33333333       0.010
   0.50000000  0.00000000  0.33333333       0.005
  -0.00000000  0.12500000  0.33333333       0.010
   0.12500000  0.12500000  0.33333333       0.021
   0.25000000  0.12500000  0.33333333       0.021
   0.37500000  0.12500000  0.33333333       0.021
   0.50000000  0.12500000  0.33333333       0.010
  -0.00000000  0.25000000  0.33333333       0.010
   0.12500000  0.25000000  0.33333333       0.021
   0.25000000  0.25000000  0.33333333       0.021
   0.37500000  0.25000000  0.33333333       0.021
   0.50000000  0.25000000  0.33333333       0.010
  -0.00000000  0.37500000  0.33333333       0.010
   0.12500000  0.37500000  0.33333333       0.021
   0.25000000  0.37500000  0.33333333       0.021
   0.37500000  0.37500000  0.33333333       0.021
   0.50000000  0.37500000  0.33333333       0.010
  -0.00000000  0.50000000  0.33333333       0.005
   0.12500000  0.50000000  0.33333333       0.010
   0.25000000  0.50000000  0.33333333       0.010
   0.37500000  0.50000000  0.33333333       0.010
   0.50000000  0.50000000  0.33333333       0.005
  -0.00000000  0.00000000  0.50000000       0.003
   0.12500000 -0.00000000  0.50000000       0.005
   0.25000000  0.00000000  0.50000000       0.005
   0.37500000 -0.00000000  0.50000000       0.005
   0.50000000  0.00000000  0.50000000       0.003
  -0.00000000  0.12500000  0.50000000       0.005
   0.12500000  0.12500000  0.50000000       0.010
   0.25000000  0.12500000  0.50000000       0.010
   0.37500000  0.12500000  0.50000000       0.010
   0.50000000  0.12500000  0.50000000       0.005
  -0.00000000  0.25000000  0.50000000       0.005
   0.12500000  0.25000000  0.50000000       0.010
   0.25000000  0.25000000  0.50000000       0.010
   0.37500000  0.25000000  0.50000000       0.010
   0.50000000  0.25000000  0.50000000       0.005
  -0.00000000  0.37500000  0.50000000       0.005
   0.12500000  0.37500000  0.50000000       0.010
   0.25000000  0.37500000  0.50000000       0.010
   0.37500000  0.37500000  0.50000000       0.010
   0.50000000  0.37500000  0.50000000       0.005
  -0.00000000  0.50000000  0.50000000       0.003
   0.12500000  0.50000000  0.50000000       0.005
   0.25000000  0.50000000  0.50000000       0.005
   0.37500000  0.50000000  0.50000000       0.005
   0.50000000  0.50000000  0.50000000       0.003
 
 position of ions in fractional coordinates (direct lattice) 
   0.00990806  0.66747354  0.12371839
   0.50990806  0.33252646  0.12628161
   0.50990806  0.33252646  0.37371839
   0.00990806  0.66747354  0.37628161
   0.01055258  0.16865862  0.25000000
   0.51055258  0.83134138  0.00000000
   0.00990806  0.66747354  0.62371839
   0.50990806  0.33252646  0.62628161
   0.50990806  0.33252646  0.87371839
   0.00990806  0.66747354  0.87628161
   0.01055258  0.16865862  0.75000000
   0.51055258  0.83134138  0.50000000
   0.00176585  0.16946502  0.00000000
   0.50176585  0.83053498  0.25000000
   0.00176585  0.16946502  0.50000000
   0.50176585  0.83053498  0.75000000
   0.11186377  0.32159740  0.11394486
   0.64951606  0.17243990  0.00000000
   0.11186377  0.32159740  0.38605514
   0.61186377  0.67840260  0.13605514
   0.61186377  0.67840260  0.36394486
   0.61041787  0.13579217  0.25000000
   0.11041787  0.86420783  0.00000000
   0.14951606  0.82756010  0.25000000
   0.11186377  0.32159740  0.61394486
   0.64951606  0.17243990  0.50000000
   0.11186377  0.32159740  0.88605514
   0.61186377  0.67840260  0.63605514
   0.61186377  0.67840260  0.86394486
   0.61041787  0.13579217  0.75000000
   0.11041787  0.86420783  0.50000000
   0.14951606  0.82756010  0.75000000
 
 position of ions in cartesian coordinates  (Angst):
   0.04869716  3.61103880  1.55497225
   2.50615007  1.79897160  1.58718850
   2.50615007  1.79897160  4.69713300
   0.04869716  3.61103880  4.72934926
   0.05186494  0.91244491  3.14216075
   2.50931785  4.49756548  0.00000000
   0.04869716  3.61103880  7.83929376
   2.50615007  1.79897160  7.87151001
   2.50615007  1.79897160 10.98145451
   0.04869716  3.61103880 11.01367076
   0.05186494  0.91244491  9.42648226
   2.50931785  4.49756548  6.28432151
   0.00867898  0.91680750  0.00000000
   2.46613189  4.49320290  3.14216075
   0.00867898  0.91680750  6.28432151
   2.46613189  4.49320290  9.42648226
   0.54979987  1.73984527  1.43213221
   3.19231026  0.93290165  0.00000000
   0.54979987  1.73984527  4.85218930
   3.00725278  3.67016513  1.71002854
   3.00725278  3.67016513  4.57429296
   3.00014632  0.73463706  3.14216075
   0.54269341  4.67537333  0.00000000
   0.73485736  4.47710874  3.14216075
   0.54979987  1.73984527  7.71645372
   3.19231026  0.93290165  6.28432151
   0.54979987  1.73984527 11.13651080
   3.00725278  3.67016513  7.99435005
   3.00725278  3.67016513 10.85861447
   3.00014632  0.73463706  9.42648226
   0.54269341  4.67537333  6.28432151
   0.73485736  4.47710874  9.42648226
 


--------------------------------------------------------------------------------------------------------


 k-point  1 :   0.0000 0.0000 0.0000  plane waves:   11165
 k-point  2 :   0.1250-0.0000 0.0000  plane waves:   11137
 k-point  3 :   0.2500-0.0000 0.0000  plane waves:   11142
 k-point  4 :   0.3750-0.0000 0.0000  plane waves:   11164
 k-point  5 :   0.5000-0.0000 0.0000  plane waves:   11156
 k-point  6 :   0.0000 0.1250 0.0000  plane waves:   11151
 k-point  7 :   0.1250 0.1250 0.0000  plane waves:   11150
 k-point  8 :   0.2500 0.1250 0.0000  plane waves:   11150
 k-point  9 :   0.3750 0.1250 0.0000  plane waves:   11152
 k-point 10 :   0.5000 0.1250 0.0000  plane waves:   11136
 k-point 11 :   0.0000 0.2500 0.0000  plane waves:   11106
 k-point 12 :   0.1250 0.2500 0.0000  plane waves:   11129
 k-point 13 :   0.2500 0.2500 0.0000  plane waves:   11155
 k-point 14 :   0.3750 0.2500 0.0000  plane waves:   11155
 k-point 15 :   0.5000 0.2500 0.0000  plane waves:   11170
 k-point 16 :   0.0000 0.3750 0.0000  plane waves:   11144
 k-point 17 :   0.1250 0.3750 0.0000  plane waves:   11143
 k-point 18 :   0.2500 0.3750 0.0000  plane waves:   11155
 k-point 19 :   0.3750 0.3750 0.0000  plane waves:   11173
 k-point 20 :   0.5000 0.3750 0.0000  plane waves:   11170
 k-point 21 :   0.0000 0.5000 0.0000  plane waves:   11142
 k-point 22 :   0.1250 0.5000 0.0000  plane waves:   11140
 k-point 23 :   0.2500 0.5000 0.0000  plane waves:   11160
 k-point 24 :   0.3750 0.5000 0.0000  plane waves:   11144
 k-point 25 :   0.5000 0.5000 0.0000  plane waves:   11168
 k-point 26 :  -0.0000 0.0000 0.1667  plane waves:   11158
 k-point 27 :   0.1250 0.0000 0.1667  plane waves:   11140
 k-point 28 :   0.2500-0.0000 0.1667  plane waves:   11127
 k-point 29 :   0.3750-0.0000 0.1667  plane waves:   11153
 k-point 30 :   0.5000-0.0000 0.1667  plane waves:   11162
 k-point 31 :  -0.0000 0.1250 0.1667  plane waves:   11156
 k-point 32 :   0.1250 0.1250 0.1667  plane waves:   11147
 k-point 33 :   0.2500 0.1250 0.1667  plane waves:   11148
 k-point 34 :   0.3750 0.1250 0.1667  plane waves:   11159
 k-point 35 :   0.5000 0.1250 0.1667  plane waves:   11140
 k-point 36 :  -0.0000 0.2500 0.1667  plane waves:   11140
 k-point 37 :   0.1250 0.2500 0.1667  plane waves:   11138
 k-point 38 :   0.2500 0.2500 0.1667  plane waves:   11148
 k-point 39 :   0.3750 0.2500 0.1667  plane waves:   11154
 k-point 40 :   0.5000 0.2500 0.1667  plane waves:   11182
 k-point 41 :  -0.0000 0.3750 0.1667  plane waves:   11138
 k-point 42 :   0.1250 0.3750 0.1667  plane waves:   11143
 k-point 43 :   0.2500 0.3750 0.1667  plane waves:   11155
 k-point 44 :   0.3750 0.3750 0.1667  plane waves:   11172
 k-point 45 :   0.5000 0.3750 0.1667  plane waves:   11162
 k-point 46 :  -0.0000 0.5000 0.1667  plane waves:   11174
 k-point 47 :   0.1250 0.5000 0.1667  plane waves:   11152
 k-point 48 :   0.2500 0.5000 0.1667  plane waves:   11164
 k-point 49 :   0.3750 0.5000 0.1667  plane waves:   11166
 k-point 50 :   0.5000 0.5000 0.1667  plane waves:   11164
 k-point 51 :  -0.0000 0.0000 0.3333  plane waves:   11176
 k-point 52 :   0.1250 0.0000 0.3333  plane waves:   11150
 k-point 53 :   0.2500-0.0000 0.3333  plane waves:   11144
 k-point 54 :   0.3750-0.0000 0.3333  plane waves:   11159
 k-point 55 :   0.5000 0.0000 0.3333  plane waves:   11132
 k-point 56 :  -0.0000 0.1250 0.3333  plane waves:   11182
 k-point 57 :   0.1250 0.1250 0.3333  plane waves:   11152
 k-point 58 :   0.2500 0.1250 0.3333  plane waves:   11137
 k-point 59 :   0.3750 0.1250 0.3333  plane waves:   11153
 k-point 60 :   0.5000 0.1250 0.3333  plane waves:   11152
 k-point 61 :  -0.0000 0.2500 0.3333  plane waves:   11158
 k-point 62 :   0.1250 0.2500 0.3333  plane waves:   11155
 k-point 63 :   0.2500 0.2500 0.3333  plane waves:   11149
 k-point 64 :   0.3750 0.2500 0.3333  plane waves:   11153
 k-point 65 :   0.5000 0.2500 0.3333  plane waves:   11158
 k-point 66 :  -0.0000 0.3750 0.3333  plane waves:   11128
 k-point 67 :   0.1250 0.3750 0.3333  plane waves:   11157
 k-point 68 :   0.2500 0.3750 0.3333  plane waves:   11155
 k-point 69 :   0.3750 0.3750 0.3333  plane waves:   11173
 k-point 70 :   0.5000 0.3750 0.3333  plane waves:   11178
 k-point 71 :  -0.0000 0.5000 0.3333  plane waves:   11138
 k-point 72 :   0.1250 0.5000 0.3333  plane waves:   11138
 k-point 73 :   0.2500 0.5000 0.3333  plane waves:   11166
 k-point 74 :   0.3750 0.5000 0.3333  plane waves:   11186
 k-point 75 :   0.5000 0.5000 0.3333  plane waves:   11176
 k-point 76 :  -0.0000 0.0000 0.5000  plane waves:   11178
 k-point 77 :   0.1250-0.0000 0.5000  plane waves:   11176
 k-point 78 :   0.2500 0.0000 0.5000  plane waves:   11164
 k-point 79 :   0.3750-0.0000 0.5000  plane waves:   11150
 k-point 80 :   0.5000 0.0000 0.5000  plane waves:   11112
 k-point 81 :  -0.0000 0.1250 0.5000  plane waves:   11146
 k-point 82 :   0.1250 0.1250 0.5000  plane waves:   11158
 k-point 83 :   0.2500 0.1250 0.5000  plane waves:   11148
 k-point 84 :   0.3750 0.1250 0.5000  plane waves:   11130
 k-point 85 :   0.5000 0.1250 0.5000  plane waves:   11148
 k-point 86 :  -0.0000 0.2500 0.5000  plane waves:   11196
 k-point 87 :   0.1250 0.2500 0.5000  plane waves:   11144
 k-point 88 :   0.2500 0.2500 0.5000  plane waves:   11144
 k-point 89 :   0.3750 0.2500 0.5000  plane waves:   11158
 k-point 90 :   0.5000 0.2500 0.5000  plane waves:   11156
 k-point 91 :  -0.0000 0.3750 0.5000  plane waves:   11138
 k-point 92 :   0.1250 0.3750 0.5000  plane waves:   11150
 k-point 93 :   0.2500 0.3750 0.5000  plane waves:   11152
 k-point 94 :   0.3750 0.3750 0.5000  plane waves:   11168
 k-point 95 :   0.5000 0.3750 0.5000  plane waves:   11176
 k-point 96 :  -0.0000 0.5000 0.5000  plane waves:   11136
 k-point 97 :   0.1250 0.5000 0.5000  plane waves:   11160
 k-point 98 :   0.2500 0.5000 0.5000  plane waves:   11160
 k-point 99 :   0.3750 0.5000 0.5000  plane waves:   11200
 k-point ** :   0.5000 0.5000 0.5000  plane waves:   11176

 maximum and minimum number of plane-waves per node :      1422     1367

 maximum number of plane-waves:     11200
 maximum index in each direction: 
   IXMAX=    9   IYMAX=   10   IZMAX=   25
   IXMIN=  -10   IYMIN=  -11   IZMIN=  -25

 WARNING: aliasing errors must be expected set NGX to  40 to avoid them
 WARNING: aliasing errors must be expected set NGY to  44 to avoid them
 WARNING: aliasing errors must be expected set NGZ to 102 to avoid them
 aliasing errors are usually negligible using standard VASP settings
 and one can safely disregard these warnings

 real space projection operators:
  total allocation   :       3959.28 KBytes
  max/ min on nodes  :        553.77        382.36


 parallel 3D FFT for wavefunctions:
    minimum data exchange during FFTs selected (reduces bandwidth)
 parallel 3D FFT for charge:
    minimum data exchange during FFTs selected (reduces bandwidth)


 total amount of memory used by VASP on root node    95763. kBytes
========================================================================

   base      :      30000. kBytes
   nonlr-proj:       2649. kBytes
   fftplans  :        688. kBytes
   grid      :       1733. kBytes
   one-center:        124. kBytes
   wavefun   :      60569. kBytes
 
     INWAV:  cpu time    9.8601: real time    9.9006
 initial charge density was supplied:
 number of electron     128.0000133 magnetization      -0.0000507
 keeping initial charge density in first step


--------------------------------------------------------------------------------------------------------


 Maximum index for non-local projection operator          530
 Maximum index for augmentation-charges          689 (set IRDMAX)


--------------------------------------------------------------------------------------------------------


 First call to EWALD:  gamma=   0.255
 Maximum number of real-space cells 4x 3x 2
 Maximum number of reciprocal cells 2x 2x 5

 FEWALD executed in parallel
    FEWALD:  cpu time    0.0016: real time    0.0016


----------------------------------------- Iteration    1(   1)  ---------------------------------------


    POTLOK:  cpu time    0.0128: real time    0.0130
    SETDIJ:  cpu time    0.0052: real time    0.0052
    EDDIAG:  cpu time    2.7060: real time    2.7269
  RMM-DIIS:  cpu time    2.1244: real time    2.1402
    ORTHCH:  cpu time    0.6732: real time    0.6774
 BZINTS: Fermi energy:  0.015734;128.000000 electrons
         Band energy:-655.849705;  BLOECHL correction:  0.000000
       DOS:  cpu time    0.1212: real time    0.1219
    --------------------------------------------
      LOOP:  cpu time    5.6470: real time    5.6894

 eigenvalue-minimisations  : 30735
 total energy-change (2. order) :-0.1993610E+03  (-0.3857702E-07)
 number of electron     128.0000133 magnetization      -0.0000507
 augmentation part      128.0000133 magnetization      -0.0000507

 Free energy of the ion-electron system (eV)
  ---------------------------------------------------
  alpha Z        PSCENC =       248.93912067
  Ewald energy   TEWEN  =     -5279.31471607
  -Hartree energ DENC   =     -2644.24984824
  -exchange      EXHF   =         0.00000000
  -V(xc)+E(xc)   XCENC  =       228.37015459
  PAW double counting   =     10287.94056990   -10050.06028760
  entropy T*S    EENTRO =         0.00000000
  eigenvalues    EBANDS =      -655.84970530
  atomic energy  EATOM  =      7664.86366482
  Solvation  Ediel_sol  =         0.00000000
  ---------------------------------------------------
  free energy    TOTEN  =      -199.36104723 eV

  energy without entropy =     -199.36104723  energy(sigma->0) =     -199.36104723


--------------------------------------------------------------------------------------------------------




----------------------------------------- Iteration    1(   2)  ---------------------------------------


    EDDIAG:  cpu time    2.6749: real time    2.6935
  RMM-DIIS:  cpu time    2.0003: real time    2.0116
    ORTHCH:  cpu time    0.6694: real time    0.6736
 BZINTS: Fermi energy:  0.015734;128.000000 electrons
         Band energy:-655.849705;  BLOECHL correction:  0.000000
       DOS:  cpu time    0.1205: real time    0.1210
    --------------------------------------------
      LOOP:  cpu time    5.4665: real time    5.5142

 eigenvalue-minimisations  : 29032
 total energy-change (2. order) :-0.1308581E-07  (-0.8377232E-08)
 number of electron     128.0000133 magnetization      -0.0000507
 augmentation part      128.0000133 magnetization      -0.0000507

 Free energy of the ion-electron system (eV)
  ---------------------------------------------------
  alpha Z        PSCENC =       248.93912067
  Ewald energy   TEWEN  =     -5279.31471607
  -Hartree energ DENC   =     -2644.24984824
  -exchange      EXHF   =         0.00000000
  -V(xc)+E(xc)   XCENC  =       228.37015459
  PAW double counting   =     10287.94056990   -10050.06028760
  entropy T*S    EENTRO =         0.00000000
  eigenvalues    EBANDS =      -655.84970531
  atomic energy  EATOM  =      7664.86366482
  Solvation  Ediel_sol  =         0.00000000
  ---------------------------------------------------
  free energy    TOTEN  =      -199.36104724 eV

  energy without entropy =     -199.36104724  energy(sigma->0) =     -199.36104724


--------------------------------------------------------------------------------------------------------




 average (electrostatic) potential at core
  the test charge radii are     0.9748  1.2064  0.7215
  (the norm of the test charge is              1.0000)
       1 -26.2068       2 -26.2068       3 -26.2068       4 -26.2068       5 -26.3416
       6 -26.3416       7 -26.2068       8 -26.2068       9 -26.2068      10 -26.2068
      11 -26.3416      12 -26.3416      13 -45.2758      14 -45.2758      15 -45.2758
      16 -45.2758      17 -72.9615      18 -73.0108      19 -72.9615      20 -72.9615
      21 -72.9615      22 -72.9665      23 -72.9665      24 -73.0108      25 -72.9615
      26 -73.0108      27 -72.9615      28 -72.9615      29 -72.9615      30 -72.9665
      31 -72.9665      32 -73.0108
 
 
 
 E-fermi :   0.0157     XC(G=0):  -9.4190     alpha+bet :-11.3128


 spin component 1

 k-point     1 :       0.0000    0.0000    0.0000
  band No.  band energies     occupation 
      1     -16.1992      1.00000
      2     -16.0398      1.00000
      3     -16.0398      1.00000
      4     -15.8211      1.00000
      5     -15.5706      1.00000
      6     -15.5669      1.00000
      7     -15.5449      1.00000
      8     -15.5318      1.00000
      9     -15.5318      1.00000
     10     -15.5053      1.00000
     11     -15.5053      1.00000
     12     -15.4849      1.00000
     13     -15.4532      1.00000
     14     -15.4532      1.00000
     15     -15.4362      1.00000
     16     -15.4287      1.00000
     17      -3.0209      1.00000
     18      -2.9674      1.00000
     19      -2.9552      1.00000
     20      -2.8240      1.00000
     21      -2.8240      1.00000
     22      -2.6614      1.00000
     23      -2.6614      1.00000
     24      -2.6181      1.00000
     25      -2.6087      1.00000
     26      -2.5457      1.00000
     27      -2.5457      1.00000
     28      -2.3609      1.00000
     29      -2.3609      1.00000
     30      -2.3122      1.00000
     31      -2.2129      1.00000
     32      -2.1805      1.00000
     33      -2.1104      1.00000
     34      -2.1104      1.00000
     35      -2.0887      1.00000
     36      -2.0877      1.00000
     37      -2.0351      1.00000
     38      -1.9782      1.00000
     39      -1.9782      1.00000
     40      -1.7630      1.00000
     41      -1.6462      1.00000
     42      -1.6462      1.00000
     43      -1.5370      1.00000
     44      -1.5359      1.00000
     45      -1.5001      1.00000
     46      -1.2706      1.00000
     47      -1.2706      1.00000
     48      -1.2146      1.00000
     49      -1.1349      1.00000
     50      -0.9241      1.00000
     51      -0.9241      1.00000
     52      -0.8915      1.00000
     53      -0.6987      1.00000
     54      -0.5360      1.00000
     55      -0.5360      1.00000
     56      -0.5292      1.00000
     57      -0.4402      1.00000
     58      -0.3944      1.00000
     59      -0.3944      1.00000
     60      -0.3867      1.00000
     61      -0.2899      1.00000
     62      -0.2899      1.00000
     63      -0.2699      1.00000
     64      -0.1325      1.00000
     65       4.1599      0.00000
     66       4.1599      0.00000
     67       4.1864      0.00000
     68       4.2000      0.00000
     69       4.2487      0.00000
     70       4.2599      0.00000
     71       4.2599      0.00000
     72       4.3154      0.00000
     73       4.5448      0.00000
     74       4.8281      0.00000
     75       4.8281      0.00000
     76       4.9231      0.00000
     77       4.9231      0.00000
     78       4.9295      0.00000
     79       5.0252      0.00000
     80       5.0860      0.00000
     81       5.0860      0.00000
     82       5.1546      0.00000
     83       5.1637      0.00000
     84       5.2942      0.00000
     85       6.5032      0.00000
     86       7.7849      0.00000
     87       7.7849      0.00000
     88       9.7802      0.00000
     89      10.1981      0.00000
     90      10.7292      0.00000
     91      10.7462      0.00000
     92      10.8652      0.00000
     93      10.8652      0.00000
     94      11.2815      0.00000
     95      11.3659      0.00000
     96      11.3659      0.00000
     97      11.6211      0.00000
     98      11.8427      0.00000
     99      12.0132      0.00000
    100      12.0258      0.00000
    101      12.7999      0.00000
    102      12.9233      0.00000
    103      13.2232      0.00000
    104      13.3843      0.00000

 k-point     2 :       0.1250   -0.0000    0.0000
  band No.  band energies     occupation 
      1     -16.1780      1.00000
      2     -16.0234      1.00000
      3     -16.0234      1.00000
      4     -15.8142      1.00000
      5     -15.5822      1.00000
      6     -15.5626      1.00000
      7     -15.5440      1.00000
      8     -15.5389      1.00000
      9     -15.5389      1.00000
     10     -15.5088      1.00000
     11     -15.5088      1.00000
     12     -15.4911      1.00000
     13     -15.4569      1.00000
     14     -15.4569      1.00000
     15     -15.4418      1.00000
     16     -15.4340      1.00000
     17      -3.0234      1.00000
     18      -2.9981      1.00000
     19      -2.9643      1.00000
     20      -2.8675      1.00000
     21      -2.8675      1.00000
     22      -2.7207      1.00000
     23      -2.7207      1.00000
     24      -2.6687      1.00000
     25      -2.6198      1.00000
     26      -2.5135      1.00000
     27      -2.5135      1.00000
     28      -2.3761      1.00000
     29      -2.3761      1.00000
     30      -2.3702      1.00000
     31      -2.2387      1.00000
     32      -2.1947      1.00000
     33      -2.1947      1.00000
     34      -2.1872      1.00000
     35      -2.1520      1.00000
     36      -2.0603      1.00000
     37      -2.0324      1.00000
     38      -1.9196      1.00000
     39      -1.9017      1.00000
     40      -1.9017      1.00000
     41      -1.7141      1.00000
     42      -1.7141      1.00000
     43      -1.5601      1.00000
     44      -1.4875      1.00000
     45      -1.4842      1.00000
     46      -1.1632      1.00000
     47      -1.1632      1.00000
     48      -1.1344      1.00000
     49      -0.9557      1.00000
     50      -0.9557      1.00000
     51      -0.9536      1.00000
     52      -0.9107      1.00000
     53      -0.6825      1.00000
     54      -0.4796      1.00000
     55      -0.4796      1.00000
     56      -0.4795      1.00000
     57      -0.4166      1.00000
     58      -0.3835      1.00000
     59      -0.3835      1.00000
     60      -0.3538      1.00000
     61      -0.2942      1.00000
     62      -0.2532      1.00000
     63      -0.2532      1.00000
     64      -0.1000      1.00000
     65       4.1523      0.00000
     66       4.1523      0.00000
     67       4.1828      0.00000
     68       4.1988      0.00000
     69       4.2423      0.00000
     70       4.2625      0.00000
     71       4.2625      0.00000
     72       4.3050      0.00000
     73       4.6741      0.00000
     74       4.8633      0.00000
     75       4.8633      0.00000
     76       4.9396      0.00000
     77       4.9545      0.00000
     78       4.9545      0.00000
     79       5.0279      0.00000
     80       5.0874      0.00000
     81       5.0874      0.00000
     82       5.1516      0.00000
     83       5.1531      0.00000
     84       5.2846      0.00000
     85       6.6789      0.00000
     86       7.8545      0.00000
     87       7.8545      0.00000
     88       9.7389      0.00000
     89      10.1070      0.00000
     90      10.4390      0.00000
     91      10.7015      0.00000
     92      10.7120      0.00000
     93      10.7120      0.00000
     94      11.2638      0.00000
     95      11.3387      0.00000
     96      11.3387      0.00000
     97      11.4123      0.00000
     98      11.6996      0.00000
     99      11.7940      0.00000
    100      11.7969      0.00000
    101      12.7202      0.00000
    102      12.8639      0.00000
    103      13.3031      0.00000
    104      13.3693      0.00000

 k-point     3 :       0.2500   -0.0000    0.0000
  band No.  band energies     occupation 
      1     -16.1179      1.00000
      2     -15.9789      1.00000
      3     -15.9789      1.00000
      4     -15.8080      1.00000
      5     -15.6104      1.00000
      6     -15.5719      1.00000
      7     -15.5719      1.00000
      8     -15.5498      1.00000
      9     -15.5344      1.00000
     10     -15.5100      1.00000
     11     -15.5065      1.00000
     12     -15.5065      1.00000
     13     -15.4649      1.00000
     14     -15.4649      1.00000
     15     -15.4575      1.00000
     16     -15.4489      1.00000
     17      -3.0861      1.00000
     18      -3.0250      1.00000
     19      -3.0143      1.00000
     20      -3.0143      1.00000
     21      -2.9535      1.00000
     22      -2.7769      1.00000
     23      -2.7615      1.00000
     24      -2.7615      1.00000
     25      -2.6799      1.00000
     26      -2.6180      1.00000
     27      -2.5434      1.00000
     28      -2.5434      1.00000
     29      -2.3821      1.00000
     30      -2.3821      1.00000
     31      -2.3064      1.00000
     32      -2.2799      1.00000
     33      -2.2799      1.00000
     34      -2.2669      1.00000
     35      -2.1375      1.00000
     36      -2.0575      1.00000
     37      -2.0450      1.00000
     38      -2.0283      1.00000
     39      -1.8949      1.00000
     40      -1.8949      1.00000
     41      -1.6818      1.00000
     42      -1.6818      1.00000
     43      -1.4382      1.00000
     44      -1.4350      1.00000
     45      -1.3692      1.00000
     46      -1.1049      1.00000
     47      -1.0699      1.00000
     48      -1.0699      1.00000
     49      -0.9837      1.00000
     50      -0.9526      1.00000
     51      -0.9526      1.00000
     52      -0.7107      1.00000
     53      -0.6305      1.00000
     54      -0.4139      1.00000
     55      -0.4139      1.00000
     56      -0.3521      1.00000
     57      -0.3462      1.00000
     58      -0.3442      1.00000
     59      -0.3064      1.00000
     60      -0.3064      1.00000
     61      -0.2806      1.00000
     62      -0.1751      1.00000
     63      -0.1751      1.00000
     64      -0.0431      1.00000
     65       4.1306      0.00000
     66       4.1306      0.00000
     67       4.1738      0.00000
     68       4.1967      0.00000
     69       4.2231      0.00000
     70       4.2572      0.00000
     71       4.2572      0.00000
     72       4.2767      0.00000
     73       4.8504      0.00000
     74       4.8504      0.00000
     75       4.9269      0.00000
     76       4.9944      0.00000
     77       5.0831      0.00000
     78       5.0831      0.00000
     79       5.0839      0.00000
     80       5.1470      0.00000
     81       5.1470      0.00000
     82       5.1481      0.00000
     83       5.1485      0.00000
     84       5.2576      0.00000
     85       7.1356      0.00000
     86       8.0742      0.00000
     87       8.0742      0.00000
     88       9.5882      0.00000
     89       9.8831      0.00000
     90       9.9018      0.00000
     91      10.2925      0.00000
     92      10.2925      0.00000
     93      10.6501      0.00000
     94      11.0267      0.00000
     95      11.1822      0.00000
     96      11.2314      0.00000
     97      11.2314      0.00000
     98      11.3719      0.00000
     99      11.5013      0.00000
    100      11.5014      0.00000
    101      12.4404      0.00000
    102      12.4866      0.00000
    103      13.1875      0.00000
    104      13.2762      0.00000

 k-point     4 :       0.3750   -0.0000    0.0000
  band No.  band energies     occupation 
      1     -16.0294      1.00000
      2     -15.9232      1.00000
      3     -15.9232      1.00000
      4     -15.8441      1.00000
      5     -15.6212      1.00000
      6     -15.6212      1.00000
      7     -15.6134      1.00000
      8     -15.5414      1.00000
      9     -15.5301      1.00000
     10     -15.5167      1.00000
     11     -15.4978      1.00000
     12     -15.4978      1.00000
     13     -15.4801      1.00000
     14     -15.4745      1.00000
     15     -15.4745      1.00000
     16     -15.4703      1.00000
     17      -3.1669      1.00000
     18      -3.1669      1.00000
     19      -3.1450      1.00000
     20      -3.0106      1.00000
     21      -2.9603      1.00000
     22      -2.8856      1.00000
     23      -2.8787      1.00000
     24      -2.7747      1.00000
     25      -2.7741      1.00000
     26      -2.7741      1.00000
     27      -2.6197      1.00000
     28      -2.6197      1.00000
     29      -2.3679      1.00000
     30      -2.3679      1.00000
     31      -2.3429      1.00000
     32      -2.3324      1.00000
     33      -2.3171      1.00000
     34      -2.3171      1.00000
     35      -2.0899      1.00000
     36      -2.0760      1.00000
     37      -2.0515      1.00000
     38      -2.0328      1.00000
     39      -1.9403      1.00000
     40      -1.9403      1.00000
     41      -1.5510      1.00000
     42      -1.5510      1.00000
     43      -1.3494      1.00000
     44      -1.3311      1.00000
     45      -1.2842      1.00000
     46      -1.1652      1.00000
     47      -1.1652      1.00000
     48      -1.1006      1.00000
     49      -0.9757      1.00000
     50      -0.8144      1.00000
     51      -0.8144      1.00000
     52      -0.6635      1.00000
     53      -0.5580      1.00000
     54      -0.4071      1.00000
     55      -0.3920      1.00000
     56      -0.3920      1.00000
     57      -0.2727      1.00000
     58      -0.2222      1.00000
     59      -0.2222      1.00000
     60      -0.2213      1.00000
     61      -0.1837      1.00000
     62      -0.0935      1.00000
     63      -0.0935      1.00000
     64      -0.0164      1.00000
     65       4.1097      0.00000
     66       4.1097      0.00000
     67       4.1667      0.00000
     68       4.1954      0.00000
     69       4.1984      0.00000
     70       4.2393      0.00000
     71       4.2393      0.00000
     72       4.2409      0.00000
     73       4.8215      0.00000
     74       4.8215      0.00000
     75       4.9889      0.00000
     76       5.0234      0.00000
     77       5.0800      0.00000
     78       5.0800      0.00000
     79       5.1557      0.00000
     80       5.2194      0.00000
     81       5.2474      0.00000
     82       5.3022      0.00000
     83       5.3591      0.00000
     84       5.3591      0.00000
     85       7.7512      0.00000
     86       8.4398      0.00000
     87       8.4398      0.00000
     88       9.0822      0.00000
[...]
 total charge-density along one line
 
 pseudopotential strength for first ion, spin component:           1
  1.180   5.287  -0.000  -0.000   0.000
  5.287  22.643  -0.002  -0.002   0.002
 -0.000  -0.002  -0.327  -0.000   0.000
 -0.000  -0.002  -0.000  -0.327  -0.000
  0.000   0.002   0.000  -0.000  -0.327
 pseudopotential strength for first ion, spin component:           2
  1.180   5.287  -0.000  -0.000   0.000
  5.287  22.643  -0.002  -0.002   0.002
 -0.000  -0.002  -0.327  -0.000   0.000
 -0.000  -0.002  -0.000  -0.327  -0.000
  0.000   0.002   0.000  -0.000  -0.327
 total augmentation occupancy for first ion, spin component:           1
  1.000   0.000   0.000   0.000   0.000
  0.000   0.000   0.000   0.000   0.000
  0.000   0.000   0.000   0.000   0.000
  0.000   0.000   0.000   0.000   0.000
  0.000   0.000   0.000   0.000   0.000
 total augmentation occupancy for first ion, spin component:           2
  1.000   0.000   0.000   0.000   0.000
  0.000   0.000   0.000   0.000   0.000
  0.000   0.000   0.000   0.000   0.000
  0.000   0.000   0.000   0.000   0.000
  0.000   0.000   0.000   0.000   0.000


------------------------ aborting loop because EDIFF is reached ----------------------------------------


 


 total charge     
 
# of ion     s       p       d       tot
----------------------------------------
  1        0.109   0.229   0.000   0.339
  2        0.109   0.229   0.000   0.338
  3        0.109   0.229   0.000   0.338
  4        0.109   0.229   0.000   0.339
  5        0.103   0.214   0.000   0.317
  6        0.103   0.214   0.000   0.317
  7        0.109   0.229   0.000   0.339
  8        0.109   0.229   0.000   0.338
  9        0.109   0.229   0.000   0.338
 10        0.109   0.229   0.000   0.339
 11        0.103   0.214   0.000   0.317
 12        0.103   0.214   0.000   0.317
 13        0.732   1.239   4.044   6.015
 14        0.733   1.239   4.040   6.012
 15        0.732   1.239   4.044   6.015
 16        0.733   1.239   4.040   6.012
 17        1.565   3.469   0.000   5.034
 18        1.566   3.471   0.000   5.037
 19        1.565   3.469   0.000   5.034
 20        1.565   3.469   0.000   5.034
 21        1.565   3.469   0.000   5.034
 22        1.565   3.470   0.000   5.035
 23        1.565   3.468   0.000   5.033
 24        1.566   3.472   0.000   5.039
 25        1.565   3.469   0.000   5.034
 26        1.566   3.471   0.000   5.037
 27        1.565   3.469   0.000   5.034
 28        1.565   3.469   0.000   5.034
 29        1.565   3.469   0.000   5.034
 30        1.565   3.470   0.000   5.035
 31        1.565   3.468   0.000   5.033
 32        1.566   3.472   0.000   5.039
------------------------------------------------
tot       29.258  63.162  16.167 108.587
 


 magnetization (x)
 
# of ion     s       p       d       tot
----------------------------------------
  1       -0.000  -0.000   0.000  -0.000
  2       -0.000  -0.000   0.000  -0.000
  3       -0.000  -0.000   0.000  -0.000
  4       -0.000  -0.000   0.000  -0.000
  5       -0.000  -0.000   0.000  -0.000
  6       -0.000  -0.000   0.000  -0.000
  7       -0.000  -0.000   0.000  -0.000
  8       -0.000  -0.000   0.000  -0.000
  9       -0.000  -0.000   0.000  -0.000
 10       -0.000  -0.000   0.000  -0.000
 11       -0.000  -0.000   0.000  -0.000
 12       -0.000  -0.000   0.000  -0.000
 13        0.000   0.000   0.000   0.000
 14        0.000   0.000   0.000   0.000
 15        0.000   0.000   0.000   0.000
 16        0.000   0.000   0.000   0.000
 17        0.000  -0.000   0.000  -0.000
 18        0.000  -0.000   0.000  -0.000
 19        0.000  -0.000   0.000  -0.000
 20        0.000  -0.000   0.000  -0.000
 21        0.000  -0.000   0.000  -0.000
 22        0.000  -0.000   0.000  -0.000
 23        0.000  -0.000   0.000  -0.000
 24        0.000  -0.000   0.000  -0.000
 25        0.000  -0.000   0.000  -0.000
 26        0.000  -0.000   0.000  -0.000
 27        0.000  -0.000   0.000  -0.000
 28        0.000  -0.000   0.000  -0.000
 29        0.000  -0.000   0.000  -0.000
 30        0.000  -0.000   0.000  -0.000
 31        0.000  -0.000   0.000  -0.000
 32        0.000  -0.000   0.000  -0.000
------------------------------------------------
tot        0.000  -0.000   0.000  -0.000
 
    CHARGE:  cpu time    0.1821: real time    0.1830
    FORLOC:  cpu time    0.0010: real time    0.0010
    FORNL :  cpu time    1.2709: real time    1.2779
    STRESS:  cpu time    3.8270: real time    3.8467
    FORCOR:  cpu time    0.0114: real time    0.0114
    FORHAR:  cpu time    0.0021: real time    0.0021
    OFIELD:  cpu time    0.0000: real time    0.0000

 ---------------------------------------------------------------------------------------------

         DFTD3 V3.0 Rev 1        
 IVDW         = 12
 DF pbe       
 parameters
 VDW_S6       =    1.0000
 VDW_S8       =    0.7875
 VDW_A1       =    0.4289
 VDW_A2       =    4.4407
 k1-k3        =   16.0000    1.3333   -4.0000
 VDW_RADIUS   =   50.2022 A
 VDW_CNRADIUS =   21.1671 A
 Edisp (eV)   -6.31227

 E6    (eV) :    -3.8913
 E8    (eV) :    -2.4209
 % E8        : 38.35
    FORVDW:  cpu time    0.1560: real time    0.1570

  FORCE on cell =-STRESS in cart. coord.  units (eV):
  Direction    XX          YY          ZZ          XY          YZ          ZX
  --------------------------------------------------------------------------------------
  Alpha Z   248.93912   248.93912   248.93912
  Ewald   -1680.77453 -1853.33303 -1745.22687    -0.00000    -0.00000     0.00000
  Hartree   954.12895   803.11579   887.01410    -0.00000    -0.00000    -0.00000
  E(xc)    -602.67933  -603.43684  -603.34450    -0.00000    -0.00000     0.00000
  Local   -1047.46775  -722.59692  -915.15947     0.00000     0.00000    -0.00000
  n-local  -343.22267  -340.88265  -340.92830    -0.01073     0.00013     0.00009
  augment   177.29941   177.48460   177.54873     0.00000    -0.00000    -0.00000
  Kinetic  2300.29676  2297.25673  2297.66744    -0.31969    -0.00045     0.00025
  Fock        0.00000     0.00000     0.00000     0.00000     0.00000     0.00000
  vdW        -6.47210    -6.54093    -6.53126    -0.00000     0.00000    -0.00000
  -------------------------------------------------------------------------------------
  Total       0.04784     0.00587    -0.02101     0.00000     0.00000     0.00000
  in kB       0.22935     0.02816    -0.10073     0.00000     0.00000     0.00000
  external pressure =        0.05 kB  Pullay stress =        0.00 kB


 VOLUME and BASIS-vectors are now :
 -----------------------------------------------------------------------------
  energy-cutoff  :      600.00
  volume of cell :      334.20
      direct lattice vectors                 reciprocal lattice vectors
     4.914905813  0.000000000  0.000000000     0.203462699 -0.000000000  0.000000000
     0.000000000  5.410010394  0.000000000     0.000000000  0.184842528  0.000000000
     0.000000000  0.000000000 12.568643015    -0.000000000 -0.000000000  0.079563084

  length of vectors
     4.914905813  5.410010394 12.568643015     0.203462699  0.184842528  0.079563084


 FORCES acting on ions
    electron-ion (+dipol)            ewald-force                    non-local-force                 convergence-correction
 -----------------------------------------------------------------------------------------------
   -.121E-01 0.431E+01 0.133E+01   -.539E-01 -.423E+01 -.126E+01   0.657E-01 -.804E-01 -.741E-01   0.524E-05 -.360E-04 0.488E-05
   -.121E-01 -.431E+01 -.133E+01   -.539E-01 0.423E+01 0.126E+01   0.657E-01 0.804E-01 0.741E-01   0.524E-05 0.360E-04 -.488E-05
   -.121E-01 -.431E+01 0.133E+01   -.539E-01 0.423E+01 -.126E+01   0.657E-01 0.804E-01 -.741E-01   0.524E-05 0.360E-04 0.488E-05
   -.121E-01 0.431E+01 -.133E+01   -.539E-01 -.423E+01 0.126E+01   0.657E-01 -.804E-01 0.741E-01   0.524E-05 -.360E-04 -.488E-05
   -.507E+00 -.759E+01 -.116E-06   0.370E+00 0.735E+01 -.146E-12   0.136E+00 0.238E+00 0.215E-16   -.181E-05 0.168E-04 -.192E-12
   -.507E+00 0.759E+01 -.691E-06   0.370E+00 -.735E+01 -.287E-11   0.136E+00 -.238E+00 -.489E-17   -.181E-05 -.168E-04 0.113E-12
   -.121E-01 0.431E+01 0.133E+01   -.539E-01 -.423E+01 -.126E+01   0.657E-01 -.804E-01 -.741E-01   0.524E-05 -.360E-04 0.488E-05
   -.121E-01 -.431E+01 -.133E+01   -.539E-01 0.423E+01 0.126E+01   0.657E-01 0.804E-01 0.741E-01   0.524E-05 0.360E-04 -.488E-05
   -.121E-01 -.431E+01 0.133E+01   -.539E-01 0.423E+01 -.126E+01   0.657E-01 0.804E-01 -.741E-01   0.524E-05 0.360E-04 0.488E-05
   -.121E-01 0.431E+01 -.133E+01   -.539E-01 -.423E+01 0.126E+01   0.657E-01 -.804E-01 0.741E-01   0.524E-05 -.360E-04 -.488E-05
   -.507E+00 -.759E+01 -.116E-06   0.370E+00 0.735E+01 -.287E-11   0.136E+00 0.238E+00 0.215E-16   -.181E-05 0.168E-04 0.801E-13
   -.507E+00 0.759E+01 -.691E-06   0.370E+00 -.735E+01 -.142E-12   0.136E+00 -.238E+00 -.489E-17   -.181E-05 -.168E-04 0.139E-12
   -.590E+01 -.953E+01 0.207E-08   0.581E+01 0.951E+01 -.895E-12   0.860E-01 0.215E-01 0.644E-17   -.266E-03 0.910E-03 0.993E-12
   -.590E+01 0.953E+01 0.774E-06   0.581E+01 -.951E+01 -.169E-10   0.860E-01 -.215E-01 0.405E-17   -.266E-03 -.910E-03 0.675E-12
   -.590E+01 -.953E+01 0.207E-08   0.581E+01 0.951E+01 -.168E-10   0.860E-01 0.215E-01 0.644E-17   -.266E-03 0.910E-03 0.395E-11
   -.590E+01 0.953E+01 0.774E-06   0.581E+01 -.951E+01 -.995E-12   0.860E-01 -.215E-01 0.405E-17   -.266E-03 -.910E-03 0.171E-12
   -.282E+02 -.617E+02 -.842E+02   0.332E+02 0.692E+02 0.977E+02   -.502E+01 -.755E+01 -.134E+02   -.156E-02 0.209E-02 -.307E-02
   0.895E+02 -.170E+02 0.630E-06   -.107E+03 0.170E+02 -.154E-11   0.171E+02 0.254E-02 0.105E-14   0.178E-02 0.207E-03 0.560E-11
   -.282E+02 -.617E+02 0.842E+02   0.332E+02 0.692E+02 -.977E+02   -.502E+01 -.755E+01 0.134E+02   -.156E-02 0.209E-02 0.307E-02
   -.282E+02 0.617E+02 0.842E+02   0.332E+02 -.692E+02 -.977E+02   -.502E+01 0.755E+01 0.134E+02   -.156E-02 -.209E-02 0.307E-02
   -.282E+02 0.617E+02 -.842E+02   0.332E+02 -.692E+02 0.977E+02   -.502E+01 0.755E+01 -.134E+02   -.156E-02 -.209E-02 -.307E-02
   -.291E+02 -.106E+03 -.118E-04   0.342E+02 0.121E+03 -.892E-12   -.509E+01 -.154E+02 -.117E-14   -.103E-02 0.212E-03 -.642E-11
   -.291E+02 0.106E+03 0.199E-05   0.342E+02 -.121E+03 -.374E-11   -.509E+01 0.154E+02 0.544E-15   -.103E-02 -.212E-03 0.108E-11
   0.895E+02 0.170E+02 -.307E-05   -.107E+03 -.170E+02 -.998E-12   0.171E+02 -.254E-02 0.105E-14   0.178E-02 -.207E-03 -.109E-11
   -.282E+02 -.617E+02 -.842E+02   0.332E+02 0.692E+02 0.977E+02   -.502E+01 -.755E+01 -.134E+02   -.156E-02 0.209E-02 -.307E-02
   0.895E+02 -.170E+02 0.630E-06   -.107E+03 0.170E+02 -.959E-12   0.171E+02 0.254E-02 0.105E-14   0.178E-02 0.207E-03 0.641E-11
   -.282E+02 -.617E+02 0.842E+02   0.332E+02 0.692E+02 -.977E+02   -.502E+01 -.755E+01 0.134E+02   -.156E-02 0.209E-02 0.307E-02
   -.282E+02 0.617E+02 0.842E+02   0.332E+02 -.692E+02 -.977E+02   -.502E+01 0.755E+01 0.134E+02   -.156E-02 -.209E-02 0.307E-02
   -.282E+02 0.617E+02 -.842E+02   0.332E+02 -.692E+02 0.977E+02   -.502E+01 0.755E+01 -.134E+02   -.156E-02 -.209E-02 -.307E-02
   -.291E+02 -.106E+03 -.118E-04   0.342E+02 0.121E+03 -.156E-11   -.509E+01 -.154E+02 -.117E-14   -.103E-02 0.212E-03 -.299E-11
   -.291E+02 0.106E+03 0.199E-05   0.342E+02 -.121E+03 -.952E-12   -.509E+01 0.154E+02 0.544E-15   -.103E-02 -.212E-03 0.139E-11
   0.895E+02 0.170E+02 -.307E-05   -.107E+03 -.170E+02 -.395E-11   0.171E+02 -.254E-02 0.105E-14   0.178E-02 -.207E-03 0.187E-11
 -----------------------------------------------------------------------------------------------
   -.947E+01 0.153E-10 -.732E-04   0.114E-12 -.249E-13 0.130E-12   0.944E+01 0.468E-14 0.575E-14   -.105E-01 -.307E-10 -.803E-10
 
 
 POSITION                                       TOTAL-FORCE (eV/Angst)
 -----------------------------------------------------------------------------------
      0.04870      3.61104      1.55497         0.000001     -0.001817      0.000929
      2.50615      1.79897      1.58719         0.000001      0.001817     -0.000929
      2.50615      1.79897      4.69713         0.000001      0.001817      0.000929
      0.04870      3.61104      4.72935         0.000001     -0.001817     -0.000929
      0.05186      0.91244      3.14216         0.000421      0.000881      0.000000
      2.50932      4.49757      0.00000         0.000421     -0.000881     -0.000000
      0.04870      3.61104      7.83929         0.000001     -0.001817      0.000929
      2.50615      1.79897      7.87151         0.000001      0.001817     -0.000929
      2.50615      1.79897     10.98145         0.000001      0.001817      0.000929
      0.04870      3.61104     11.01367         0.000001     -0.001817     -0.000929
      0.05186      0.91244      9.42648         0.000421      0.000881      0.000000
      2.50932      4.49757      6.28432         0.000421     -0.000881     -0.000000
      0.00868      0.91681      0.00000        -0.004360      0.001791     -0.000000
      2.46613      4.49320      3.14216        -0.004360     -0.001791     -0.000000
      0.00868      0.91681      6.28432        -0.004360      0.001791     -0.000000
      2.46613      4.49320      9.42648        -0.004360     -0.001791     -0.000000
      0.54980      1.73985      1.43213         0.002012     -0.001628      0.000726
      3.19231      0.93290      0.00000        -0.002478     -0.007940     -0.000000
      0.54980      1.73985      4.85219         0.002012     -0.001628     -0.000726
      3.00725      3.67017      1.71003         0.002012      0.001628     -0.000726
      3.00725      3.67017      4.57429         0.002012      0.001628      0.000726
      3.00015      0.73464      3.14216         0.002391     -0.003332     -0.000000
      0.54269      4.67537      0.00000         0.002391      0.003332      0.000000
      0.73486      4.47711      3.14216        -0.002478      0.007940      0.000000
      0.54980      1.73985      7.71645         0.002012     -0.001628      0.000726
      3.19231      0.93290      6.28432        -0.002478     -0.007940     -0.000000
      0.54980      1.73985     11.13651         0.002012     -0.001628     -0.000726
      3.00725      3.67017      7.99435         0.002012      0.001628     -0.000726
      3.00725      3.67017     10.85861         0.002012      0.001628      0.000726
      3.00015      0.73464      9.42648         0.002391     -0.003332     -0.000000
      0.54269      4.67537      6.28432         0.002391      0.003332      0.000000
      0.73486      4.47711      9.42648        -0.002478      0.007940      0.000000
 -----------------------------------------------------------------------------------
    total drift:                               -0.038592     -0.000000     -0.000073


--------------------------------------------------------------------------------------------------------



  FREE ENERGIE OF THE ION-ELECTRON SYSTEM (eV)
  ---------------------------------------------------
  free  energy   TOTEN  =      -205.67331772 eV

  energy  without entropy=     -205.67331772  energy(sigma->0) =     -205.67331772
 


--------------------------------------------------------------------------------------------------------


    POTLOK:  cpu time    0.0192: real time    0.0193


--------------------------------------------------------------------------------------------------------


 stress matrix after NEB project (eV)
      0.04784      0.00000      0.00000
      0.00000      0.00587      0.00000
      0.00000      0.00000     -0.02101
  FORCES: max atom, RMS     0.008318    0.004061
  FORCE total and by dimension    0.022975    0.007940
  Stress total and by dimension    0.052579    0.047839
     LOOP+:  cpu time   16.6374: real time   16.7601
    4ORBIT:  cpu time    0.0000: real time    0.0000
 


 total charge     
 
# of ion     s       p       d       tot
----------------------------------------
  1        0.109   0.229   0.000   0.339
  2        0.109   0.229   0.000   0.338
  3        0.109   0.229   0.000   0.338
  4        0.109   0.229   0.000   0.339
  5        0.103   0.214   0.000   0.317
  6        0.103   0.214   0.000   0.317
  7        0.109   0.229   0.000   0.339
  8        0.109   0.229   0.000   0.338
  9        0.109   0.229   0.000   0.338
 10        0.109   0.229   0.000   0.339
 11        0.103   0.214   0.000   0.317
 12        0.103   0.214   0.000   0.317
 13        0.732   1.239   4.044   6.015
 14        0.733   1.239   4.040   6.012
 15        0.732   1.239   4.044   6.015
 16        0.733   1.239   4.040   6.012
 17        1.565   3.469   0.000   5.034
 18        1.566   3.471   0.000   5.037
 19        1.565   3.469   0.000   5.034
 20        1.565   3.469   0.000   5.034
 21        1.565   3.469   0.000   5.034
 22        1.565   3.470   0.000   5.035
 23        1.565   3.468   0.000   5.033
 24        1.566   3.472   0.000   5.039
 25        1.565   3.469   0.000   5.034
 26        1.566   3.471   0.000   5.037
 27        1.565   3.469   0.000   5.034
 28        1.565   3.469   0.000   5.034
 29        1.565   3.469   0.000   5.034
 30        1.565   3.470   0.000   5.035
 31        1.565   3.468   0.000   5.033
 32        1.566   3.472   0.000   5.039
------------------------------------------------
tot       29.258  63.162  16.167 108.587
 


 magnetization (x)
 
# of ion     s       p       d       tot
----------------------------------------
  1       -0.000  -0.000   0.000  -0.000
  2       -0.000  -0.000   0.000  -0.000
  3       -0.000  -0.000   0.000  -0.000
  4       -0.000  -0.000   0.000  -0.000
  5       -0.000  -0.000   0.000  -0.000
  6       -0.000  -0.000   0.000  -0.000
  7       -0.000  -0.000   0.000  -0.000
  8       -0.000  -0.000   0.000  -0.000
  9       -0.000  -0.000   0.000  -0.000
 10       -0.000  -0.000   0.000  -0.000
 11       -0.000  -0.000   0.000  -0.000
 12       -0.000  -0.000   0.000  -0.000
 13        0.000   0.000   0.000   0.000
 14        0.000   0.000   0.000   0.000
 15        0.000   0.000   0.000   0.000
 16        0.000   0.000   0.000   0.000
 17        0.000  -0.000   0.000  -0.000
 18        0.000  -0.000   0.000  -0.000
 19        0.000  -0.000   0.000  -0.000
 20        0.000  -0.000   0.000  -0.000
 21        0.000  -0.000   0.000  -0.000
 22        0.000  -0.000   0.000  -0.000
 23        0.000  -0.000   0.000  -0.000
 24        0.000  -0.000   0.000  -0.000
 25        0.000  -0.000   0.000  -0.000
 26        0.000  -0.000   0.000  -0.000
 27        0.000  -0.000   0.000  -0.000
 28        0.000  -0.000   0.000  -0.000
 29        0.000  -0.000   0.000  -0.000
 30        0.000  -0.000   0.000  -0.000
 31        0.000  -0.000   0.000  -0.000
 32        0.000  -0.000   0.000  -0.000
------------------------------------------------
tot        0.000  -0.000   0.000  -0.000
 
 BZINTS: Fermi energy:  0.015734;128.000000 electrons
         Band energy:-655.849705;  BLOECHL correction:  0.000000

 total amount of memory used by VASP on root node    95763. kBytes
========================================================================

   base      :      30000. kBytes
   nonlr-proj:       2649. kBytes
   fftplans  :        688. kBytes
   grid      :       1733. kBytes
   one-center:        124. kBytes
   wavefun   :      60569. kBytes
 
  
  
 General timing and accounting informations for this job:
 ========================================================
  
                  Total CPU time used (sec):       42.245
                            User time (sec):       38.669
                          System time (sec):        3.576
                         Elapsed time (sec):       46.080
  
                   Maximum memory used (kb):      535244.
                   Average memory used (kb):           0.
  
                          Minor page faults:        63278
                          Major page faults:          125
                 Voluntary context switches:         5547
