 running on   64 total cores
 distrk:  each k-point on   64 cores,    1 groups
 distr:  one band on    8 cores,    8 groups
 using from now: INCAR     
 vasp.5.4.1 05Feb16 (build Apr 23 2022 14:15:44) complex                        
  
 POSCAR found type information on POSCAR  Li V  O 
 POSCAR found :  3 types and      32 ions
 scaLAPACK will be used
 LDA part: xc-table for Pade appr. of Perdew
 POSCAR found type information on POSCAR  Li V  O 
 POSCAR found :  3 types and      32 ions
 found WAVECAR, reading the header
 WARNING: stress and forces are not correct
 POSCAR, INCAR and KPOINTS ok, starting setup
 WARNING: small aliasing (wrap around) errors must be expected
 FFT: planning ...
 reading WAVECAR
 the WAVECAR file was read successfully
 charge-density read from file: unknown                                 
 magnetization density read from file 1
 entering main loop
       N       E                     dE             d eps       ncg     rms          rms(c)
RMM:   1    -0.199361047228E+03   -0.19936E+03   -0.38577E-07 30735   0.296E-03
RMM:   2    -0.199361047241E+03   -0.13086E-07   -0.83772E-08 29032   0.110E-03
   1 F= -.20567332E+03 E0= -.20567332E+03  d E =0.000000E+00  mag=    -0.0001
