  33  33   0   0
  0.1017541E+02  0.4930055E-09  0.5436796E-09  0.1252770E-08  0.5000000E-15
  1.000000000000000E-004
  CAR 
 unknown system                          
     15.12223110    -17.59384973  301      3.04454460      1.00000000
    -17.594  0.0000E+00  0.0000E+00  0.0000E+00  0.0000E+00
    -17.485  0.0000E+00  0.0000E+00  0.0000E+00  0.0000E+00
    -17.376  0.0000E+00  0.0000E+00  0.0000E+00  0.0000E+00
    -17.267  0.0000E+00  0.0000E+00  0.0000E+00  0.0000E+00
    -17.158  0.0000E+00  0.0000E+00  0.0000E+00  0.0000E+00
    -17.049  0.0000E+00  0.0000E+00  0.0000E+00  0.0000E+00
    -16.940  0.0000E+00  0.0000E+00  0.0000E+00  0.0000E+00
    -16.830  0.0000E+00  0.0000E+00  0.0000E+00  0.0000E+00
    -16.721  0.0000E+00  0.0000E+00  0.0000E+00  0.0000E+00
    -16.612  0.0000E+00  0.0000E+00  0.0000E+00  0.0000E+00
    -16.503  0.0000E+00  0.0000E+00  0.0000E+00  0.0000E+00
    -16.394  0.0000E+00  0.0000E+00  0.0000E+00  0.0000E+00
    -16.285  0.0000E+00  0.0000E+00  0.0000E+00  0.0000E+00
    -16.176  0.2892E-06  0.3041E-06  0.3153E-07  0.3317E-07
    -16.067  0.1982E-02  0.1999E-02  0.2162E-03  0.2180E-03
    -15.958  0.1458E-01  0.1464E-01  0.1806E-02  0.1815E-02
    -15.849  0.1987E-01  0.1987E-01  0.3973E-02  0.3982E-02
    -15.740  0.1851E-01  0.1843E-01  0.5991E-02  0.5992E-02
    -15.631  0.2435E-03  0.2514E-03  0.6018E-02  0.6019E-02
    -15.522  0.5818E-01  0.5847E-01  0.1236E-01  0.1240E-01
    -15.413  0.7436E-01  0.7412E-01  0.2047E-01  0.2048E-01
    -15.304  0.3233E-01  0.3227E-01  0.2400E-01  0.2400E-01
    -15.195  0.5151E-02  0.6155E-02  0.2456E-01  0.2467E-01
    -15.086  0.1107E-01  0.1062E-01  0.2577E-01  0.2583E-01
    -14.977  0.2230E-02  0.1744E-02  0.2601E-01  0.2602E-01
    -14.868  0.8527E-02  0.1069E-01  0.2694E-01  0.2718E-01
    -14.758  0.1569E-01  0.1270E-01  0.2865E-01  0.2857E-01
    -14.649  0.3050E-01  0.3073E-01  0.3198E-01  0.3192E-01
    -14.540  0.2265E-03  0.7468E-03  0.3200E-01  0.3200E-01
    -14.431  0.0000E+00  0.0000E+00  0.3200E-01  0.3200E-01
    -14.322  0.0000E+00  0.0000E+00  0.3200E-01  0.3200E-01
    -14.213  0.0000E+00  0.0000E+00  0.3200E-01  0.3200E-01
    -14.104  0.0000E+00  0.0000E+00  0.3200E-01  0.3200E-01
    -13.995  0.0000E+00  0.0000E+00  0.3200E-01  0.3200E-01
    -13.886  0.0000E+00  0.0000E+00  0.3200E-01  0.3200E-01
    -13.777  0.0000E+00  0.0000E+00  0.3200E-01  0.3200E-01
    -13.668  0.0000E+00  0.0000E+00  0.3200E-01  0.3200E-01
    -13.559  0.0000E+00  0.0000E+00  0.3200E-01  0.3200E-01
    -13.450  0.0000E+00  0.0000E+00  0.3200E-01  0.3200E-01
    -13.341  0.0000E+00  0.0000E+00  0.3200E-01  0.3200E-01
    -13.232  0.0000E+00  0.0000E+00  0.3200E-01  0.3200E-01
    -13.123  0.0000E+00  0.0000E+00  0.3200E-01  0.3200E-01
    -13.014  0.0000E+00  0.0000E+00  0.3200E-01  0.3200E-01
    -12.905  0.0000E+00  0.0000E+00  0.3200E-01  0.3200E-01
    -12.795  0.0000E+00  0.0000E+00  0.3200E-01  0.3200E-01
    -12.686  0.0000E+00  0.0000E+00  0.3200E-01  0.3200E-01
    -12.577  0.0000E+00  0.0000E+00  0.3200E-01  0.3200E-01
    -12.468  0.0000E+00  0.0000E+00  0.3200E-01  0.3200E-01
    -12.359  0.0000E+00  0.0000E+00  0.3200E-01  0.3200E-01
    -12.250  0.0000E+00  0.0000E+00  0.3200E-01  0.3200E-01
    -12.141  0.0000E+00  0.0000E+00  0.3200E-01  0.3200E-01
    -12.032  0.0000E+00  0.0000E+00  0.3200E-01  0.3200E-01
    -11.923  0.0000E+00  0.0000E+00  0.3200E-01  0.3200E-01
    -11.814  0.0000E+00  0.0000E+00  0.3200E-01  0.3200E-01
    -11.705  0.0000E+00  0.0000E+00  0.3200E-01  0.3200E-01
    -11.596  0.0000E+00  0.0000E+00  0.3200E-01  0.3200E-01
    -11.487  0.0000E+00  0.0000E+00  0.3200E-01  0.3200E-01
    -11.378  0.0000E+00  0.0000E+00  0.3200E-01  0.3200E-01
    -11.269  0.0000E+00  0.0000E+00  0.3200E-01  0.3200E-01
    -11.160  0.0000E+00  0.0000E+00  0.3200E-01  0.3200E-01
    -11.051  0.0000E+00  0.0000E+00  0.3200E-01  0.3200E-01
    -10.942  0.0000E+00  0.0000E+00  0.3200E-01  0.3200E-01
    -10.833  0.0000E+00  0.0000E+00  0.3200E-01  0.3200E-01
    -10.723  0.0000E+00  0.0000E+00  0.3200E-01  0.3200E-01
    -10.614  0.0000E+00  0.0000E+00  0.3200E-01  0.3200E-01
    -10.505  0.0000E+00  0.0000E+00  0.3200E-01  0.3200E-01
    -10.396  0.0000E+00  0.0000E+00  0.3200E-01  0.3200E-01
    -10.287  0.0000E+00  0.0000E+00  0.3200E-01  0.3200E-01
    -10.178  0.0000E+00  0.0000E+00  0.3200E-01  0.3200E-01
    -10.069  0.0000E+00  0.0000E+00  0.3200E-01  0.3200E-01
     -9.960  0.0000E+00  0.0000E+00  0.3200E-01  0.3200E-01
     -9.851  0.0000E+00  0.0000E+00  0.3200E-01  0.3200E-01
     -9.742  0.0000E+00  0.0000E+00  0.3200E-01  0.3200E-01
     -9.633  0.0000E+00  0.0000E+00  0.3200E-01  0.3200E-01
     -9.524  0.0000E+00  0.0000E+00  0.3200E-01  0.3200E-01
     -9.415  0.0000E+00  0.0000E+00  0.3200E-01  0.3200E-01
     -9.306  0.0000E+00  0.0000E+00  0.3200E-01  0.3200E-01
     -9.197  0.0000E+00  0.0000E+00  0.3200E-01  0.3200E-01
     -9.088  0.0000E+00  0.0000E+00  0.3200E-01  0.3200E-01
     -8.979  0.0000E+00  0.0000E+00  0.3200E-01  0.3200E-01
     -8.870  0.0000E+00  0.0000E+00  0.3200E-01  0.3200E-01
     -8.761  0.0000E+00  0.0000E+00  0.3200E-01  0.3200E-01
     -8.651  0.0000E+00  0.0000E+00  0.3200E-01  0.3200E-01
     -8.542  0.0000E+00  0.0000E+00  0.3200E-01  0.3200E-01
     -8.433  0.0000E+00  0.0000E+00  0.3200E-01  0.3200E-01
     -8.324  0.0000E+00  0.0000E+00  0.3200E-01  0.3200E-01
     -8.215  0.0000E+00  0.0000E+00  0.3200E-01  0.3200E-01
     -8.106  0.0000E+00  0.0000E+00  0.3200E-01  0.3200E-01
     -7.997  0.0000E+00  0.0000E+00  0.3200E-01  0.3200E-01
     -7.888  0.0000E+00  0.0000E+00  0.3200E-01  0.3200E-01
     -7.779  0.0000E+00  0.0000E+00  0.3200E-01  0.3200E-01
     -7.670  0.0000E+00  0.0000E+00  0.3200E-01  0.3200E-01
     -7.561  0.0000E+00  0.0000E+00  0.3200E-01  0.3200E-01
     -7.452  0.0000E+00  0.0000E+00  0.3200E-01  0.3200E-01
     -7.343  0.0000E+00  0.0000E+00  0.3200E-01  0.3200E-01
     -7.234  0.0000E+00  0.0000E+00  0.3200E-01  0.3200E-01
     -7.125  0.0000E+00  0.0000E+00  0.3200E-01  0.3200E-01
     -7.016  0.0000E+00  0.0000E+00  0.3200E-01  0.3200E-01
     -6.907  0.0000E+00  0.0000E+00  0.3200E-01  0.3200E-01
     -6.798  0.0000E+00  0.0000E+00  0.3200E-01  0.3200E-01
     -6.688  0.0000E+00  0.0000E+00  0.3200E-01  0.3200E-01
     -6.579  0.0000E+00  0.0000E+00  0.3200E-01  0.3200E-01
     -6.470  0.0000E+00  0.0000E+00  0.3200E-01  0.3200E-01
     -6.361  0.0000E+00  0.0000E+00  0.3200E-01  0.3200E-01
     -6.252  0.0000E+00  0.0000E+00  0.3200E-01  0.3200E-01
     -6.143  0.0000E+00  0.0000E+00  0.3200E-01  0.3200E-01
     -6.034  0.0000E+00  0.0000E+00  0.3200E-01  0.3200E-01
     -5.925  0.0000E+00  0.0000E+00  0.3200E-01  0.3200E-01
     -5.816  0.0000E+00  0.0000E+00  0.3200E-01  0.3200E-01
     -5.707  0.0000E+00  0.0000E+00  0.3200E-01  0.3200E-01
     -5.598  0.0000E+00  0.0000E+00  0.3200E-01  0.3200E-01
     -5.489  0.0000E+00  0.0000E+00  0.3200E-01  0.3200E-01
     -5.380  0.0000E+00  0.0000E+00  0.3200E-01  0.3200E-01
     -5.271  0.0000E+00  0.0000E+00  0.3200E-01  0.3200E-01
     -5.162  0.0000E+00  0.0000E+00  0.3200E-01  0.3200E-01
     -5.053  0.0000E+00  0.0000E+00  0.3200E-01  0.3200E-01
     -4.944  0.0000E+00  0.0000E+00  0.3200E-01  0.3200E-01
     -4.835  0.0000E+00  0.0000E+00  0.3200E-01  0.3200E-01
     -4.726  0.0000E+00  0.0000E+00  0.3200E-01  0.3200E-01
     -4.616  0.0000E+00  0.0000E+00  0.3200E-01  0.3200E-01
     -4.507  0.0000E+00  0.0000E+00  0.3200E-01  0.3200E-01
     -4.398  0.0000E+00  0.0000E+00  0.3200E-01  0.3200E-01
     -4.289  0.0000E+00  0.0000E+00  0.3200E-01  0.3200E-01
     -4.180  0.0000E+00  0.0000E+00  0.3200E-01  0.3200E-01
     -4.071  0.0000E+00  0.0000E+00  0.3200E-01  0.3200E-01
     -3.962  0.0000E+00  0.0000E+00  0.3200E-01  0.3200E-01
     -3.853  0.0000E+00  0.0000E+00  0.3200E-01  0.3200E-01
     -3.744  0.0000E+00  0.0000E+00  0.3200E-01  0.3200E-01
     -3.635  0.0000E+00  0.0000E+00  0.3200E-01  0.3200E-01
     -3.526  0.0000E+00  0.0000E+00  0.3200E-01  0.3200E-01
     -3.417  0.0000E+00  0.0000E+00  0.3200E-01  0.3200E-01
     -3.308  0.6732E-16  0.3495E-16  0.3200E-01  0.3200E-01
     -3.199  0.1331E-04  0.1044E-04  0.3200E-01  0.3200E-01
     -3.090  0.1007E-01  0.9401E-02  0.3310E-01  0.3303E-01
     -2.981  0.2477E-01  0.2361E-01  0.3580E-01  0.3560E-01
     -2.872  0.3083E-01  0.2962E-01  0.3916E-01  0.3883E-01
     -2.763  0.3408E-01  0.3466E-01  0.4288E-01  0.4261E-01
     -2.654  0.3387E-01  0.3377E-01  0.4657E-01  0.4629E-01
     -2.544  0.2852E-01  0.2543E-01  0.4968E-01  0.4907E-01
     -2.435  0.2881E-01  0.2754E-01  0.5282E-01  0.5207E-01
     -2.326  0.2605E-01  0.2648E-01  0.5567E-01  0.5496E-01
     -2.217  0.3565E-01  0.3093E-01  0.5955E-01  0.5833E-01
     -2.108  0.3256E-01  0.3182E-01  0.6310E-01  0.6180E-01
     -1.999  0.3116E-01  0.2717E-01  0.6650E-01  0.6477E-01
     -1.890  0.3064E-01  0.3160E-01  0.6984E-01  0.6821E-01
     -1.781  0.2032E-01  0.1829E-01  0.7206E-01  0.7021E-01
     -1.672  0.2011E-01  0.2096E-01  0.7425E-01  0.7249E-01
     -1.563  0.2161E-01  0.2308E-01  0.7661E-01  0.7501E-01
     -1.454  0.1678E-01  0.2069E-01  0.7844E-01  0.7726E-01
     -1.345  0.2642E-01  0.2322E-01  0.8132E-01  0.7980E-01
     -1.236  0.2313E-01  0.2573E-01  0.8384E-01  0.8260E-01
     -1.127  0.2713E-01  0.2159E-01  0.8680E-01  0.8496E-01
     -1.018  0.2922E-01  0.2504E-01  0.8999E-01  0.8769E-01
     -0.909  0.2658E-01  0.2999E-01  0.9289E-01  0.9096E-01
     -0.800  0.2722E-01  0.3051E-01  0.9586E-01  0.9429E-01
     -0.691  0.2753E-01  0.3551E-01  0.9886E-01  0.9816E-01
     -0.581  0.2394E-01  0.2250E-01  0.1015E+00  0.1006E+00
     -0.472  0.2589E-01  0.2778E-01  0.1043E+00  0.1036E+00
     -0.363  0.4098E-01  0.3800E-01  0.1088E+00  0.1078E+00
     -0.254  0.3568E-01  0.3985E-01  0.1127E+00  0.1121E+00
     -0.145  0.3916E-01  0.4025E-01  0.1169E+00  0.1165E+00
     -0.036  0.3799E-01  0.4031E-01  0.1211E+00  0.1209E+00
      0.073  0.1254E-01  0.1254E-01  0.1224E+00  0.1223E+00
      0.182  0.8803E-02  0.8389E-02  0.1234E+00  0.1232E+00
      0.291  0.2518E-01  0.2380E-01  0.1261E+00  0.1258E+00
      0.400  0.1241E-01  0.1582E-01  0.1275E+00  0.1275E+00
      0.509  0.4541E-02  0.4355E-02  0.1280E+00  0.1280E+00
      0.618  0.1118E-03  0.4776E-04  0.1280E+00  0.1280E+00
      0.727  0.0000E+00  0.0000E+00  0.1280E+00  0.1280E+00
      0.836  0.0000E+00  0.0000E+00  0.1280E+00  0.1280E+00
      0.945  0.0000E+00  0.0000E+00  0.1280E+00  0.1280E+00
      1.054  0.0000E+00  0.0000E+00  0.1280E+00  0.1280E+00
      1.163  0.0000E+00  0.0000E+00  0.1280E+00  0.1280E+00
      1.272  0.0000E+00  0.0000E+00  0.1280E+00  0.1280E+00
      1.381  0.0000E+00  0.0000E+00  0.1280E+00  0.1280E+00
      1.491  0.0000E+00  0.0000E+00  0.1280E+00  0.1280E+00
      1.600  0.0000E+00  0.0000E+00  0.1280E+00  0.1280E+00
      1.709  0.0000E+00  0.0000E+00  0.1280E+00  0.1280E+00
      1.818  0.0000E+00  0.0000E+00  0.1280E+00  0.1280E+00
      1.927  0.0000E+00  0.0000E+00  0.1280E+00  0.1280E+00
      2.036  0.0000E+00  0.0000E+00  0.1280E+00  0.1280E+00
      2.145  0.0000E+00  0.0000E+00  0.1280E+00  0.1280E+00
      2.254  0.0000E+00  0.0000E+00  0.1280E+00  0.1280E+00
      2.363  0.0000E+00  0.0000E+00  0.1280E+00  0.1280E+00
      2.472  0.0000E+00  0.0000E+00  0.1280E+00  0.1280E+00
      2.581  0.1188E-17  0.0000E+00  0.1280E+00  0.1280E+00
      2.690  0.5707E-05  0.0000E+00  0.1280E+00  0.1280E+00
      2.799  0.7668E-02  0.0000E+00  0.1288E+00  0.1280E+00
      2.908  0.1045E-01  0.0000E+00  0.1300E+00  0.1280E+00
      3.017  0.2146E-03  0.0000E+00  0.1300E+00  0.1280E+00
      3.126  0.5028E-12  0.0000E+00  0.1300E+00  0.1280E+00
      3.235  0.0000E+00  0.0000E+00  0.1300E+00  0.1280E+00
      3.344  0.0000E+00  0.0000E+00  0.1300E+00  0.1280E+00
      3.453  0.0000E+00  0.0000E+00  0.1300E+00  0.1280E+00
      3.563  0.0000E+00  0.0000E+00  0.1300E+00  0.1280E+00
      3.672  0.0000E+00  0.0000E+00  0.1300E+00  0.1280E+00
      3.781  0.0000E+00  0.0000E+00  0.1300E+00  0.1280E+00
      3.890  0.0000E+00  0.0000E+00  0.1300E+00  0.1280E+00
      3.999  0.8231E-11  0.5048E-12  0.1300E+00  0.1280E+00
      4.108  0.5572E-03  0.2929E-03  0.1301E+00  0.1280E+00
      4.217  0.4074E-01  0.3839E-01  0.1345E+00  0.1322E+00
      4.326  0.5693E-01  0.5858E-01  0.1407E+00  0.1386E+00
      4.435  0.1183E-01  0.1278E-01  0.1420E+00  0.1400E+00
      4.544  0.1438E-01  0.3870E-06  0.1436E+00  0.1400E+00
      4.653  0.4636E-02  0.3157E-03  0.1441E+00  0.1400E+00
      4.762  0.4129E-02  0.4391E-02  0.1445E+00  0.1405E+00
      4.871  0.1210E-01  0.1153E-01  0.1458E+00  0.1418E+00
      4.980  0.2598E-01  0.2256E-01  0.1487E+00  0.1442E+00
      5.089  0.4210E-01  0.4306E-01  0.1533E+00  0.1489E+00
      5.198  0.5121E-01  0.5199E-01  0.1589E+00  0.1546E+00
      5.307  0.3331E-01  0.3544E-01  0.1625E+00  0.1585E+00
      5.416  0.8137E-02  0.1698E-02  0.1634E+00  0.1586E+00
      5.526  0.2215E-01  0.1077E-01  0.1658E+00  0.1598E+00
      5.635  0.1667E-01  0.5137E-02  0.1676E+00  0.1604E+00
      5.744  0.3609E-02  0.9881E-02  0.1680E+00  0.1615E+00
      5.853  0.6755E-06  0.6512E-02  0.1680E+00  0.1622E+00
      5.962  0.0000E+00  0.1256E-01  0.1680E+00  0.1635E+00
      6.071  0.0000E+00  0.1720E-01  0.1680E+00  0.1654E+00
      6.180  0.0000E+00  0.3739E-02  0.1680E+00  0.1658E+00
      6.289  0.0000E+00  0.9781E-02  0.1680E+00  0.1669E+00
      6.398  0.0000E+00  0.1019E-01  0.1680E+00  0.1680E+00
      6.507  0.1887E-06  0.4424E-06  0.1680E+00  0.1680E+00
      6.616  0.3695E-03  0.2495E-03  0.1680E+00  0.1680E+00
      6.725  0.1404E-03  0.1479E-03  0.1681E+00  0.1680E+00
      6.834  0.6361E-03  0.7480E-03  0.1681E+00  0.1681E+00
      6.943  0.1269E-07  0.7679E-06  0.1681E+00  0.1681E+00
      7.052  0.5314E-03  0.1677E-03  0.1682E+00  0.1681E+00
      7.161  0.6313E-03  0.6401E-03  0.1683E+00  0.1682E+00
      7.270  0.2709E-02  0.3005E-02  0.1685E+00  0.1685E+00
      7.379  0.1477E-02  0.1515E-02  0.1687E+00  0.1687E+00
      7.488  0.3080E-03  0.7123E-04  0.1687E+00  0.1687E+00
      7.598  0.3377E-02  0.2812E-02  0.1691E+00  0.1690E+00
      7.707  0.3968E-02  0.4767E-02  0.1695E+00  0.1695E+00
      7.816  0.7428E-03  0.6698E-03  0.1696E+00  0.1696E+00
      7.925  0.3829E-02  0.2592E-02  0.1700E+00  0.1699E+00
      8.034  0.1328E-02  0.2491E-02  0.1702E+00  0.1702E+00
      8.143  0.2765E-02  0.1901E-02  0.1705E+00  0.1704E+00
      8.252  0.2521E-02  0.3442E-02  0.1708E+00  0.1708E+00
      8.361  0.3456E-02  0.2456E-02  0.1711E+00  0.1710E+00
      8.470  0.3009E-02  0.3582E-02  0.1715E+00  0.1714E+00
      8.579  0.5498E-02  0.4284E-02  0.1721E+00  0.1719E+00
      8.688  0.8565E-02  0.8361E-02  0.1730E+00  0.1728E+00
      8.797  0.8429E-02  0.9145E-02  0.1739E+00  0.1738E+00
      8.906  0.6392E-02  0.6876E-02  0.1746E+00  0.1745E+00
      9.015  0.1379E-02  0.9201E-03  0.1748E+00  0.1746E+00
      9.124  0.2468E-02  0.3121E-02  0.1750E+00  0.1750E+00
      9.233  0.4967E-02  0.4662E-02  0.1756E+00  0.1755E+00
      9.342  0.4515E-02  0.4641E-02  0.1761E+00  0.1760E+00
      9.451  0.9748E-02  0.8873E-02  0.1771E+00  0.1770E+00
      9.560  0.6975E-02  0.7938E-02  0.1779E+00  0.1778E+00
      9.670  0.6144E-02  0.5922E-02  0.1786E+00  0.1785E+00
      9.779  0.6009E-02  0.5160E-02  0.1792E+00  0.1790E+00
      9.888  0.4810E-02  0.5168E-02  0.1797E+00  0.1796E+00
      9.997  0.5761E-02  0.5958E-02  0.1804E+00  0.1802E+00
     10.106  0.7807E-02  0.7172E-02  0.1812E+00  0.1810E+00
     10.215  0.1026E-01  0.1010E-01  0.1823E+00  0.1821E+00
     10.324  0.8227E-02  0.8747E-02  0.1832E+00  0.1831E+00
     10.433  0.1116E-01  0.1011E-01  0.1845E+00  0.1842E+00
     10.542  0.9976E-02  0.9545E-02  0.1855E+00  0.1852E+00
     10.651  0.1644E-01  0.1580E-01  0.1873E+00  0.1869E+00
     10.760  0.1202E-01  0.1282E-01  0.1886E+00  0.1883E+00
     10.869  0.8834E-02  0.9078E-02  0.1896E+00  0.1893E+00
     10.978  0.1458E-01  0.1350E-01  0.1912E+00  0.1908E+00
     11.087  0.8384E-02  0.1092E-01  0.1921E+00  0.1920E+00
     11.196  0.4754E-02  0.4425E-02  0.1926E+00  0.1925E+00
     11.305  0.1430E-01  0.1276E-01  0.1942E+00  0.1939E+00
     11.414  0.9526E-02  0.1140E-01  0.1952E+00  0.1951E+00
     11.523  0.8939E-02  0.6977E-02  0.1962E+00  0.1959E+00
     11.633  0.6768E-02  0.7087E-02  0.1969E+00  0.1967E+00
     11.742  0.6221E-02  0.6879E-02  0.1976E+00  0.1974E+00
     11.851  0.2326E-02  0.3110E-02  0.1979E+00  0.1977E+00
     11.960  0.3259E-02  0.4055E-02  0.1982E+00  0.1982E+00
     12.069  0.5697E-02  0.3681E-02  0.1989E+00  0.1986E+00
     12.178  0.6065E-02  0.7895E-02  0.1995E+00  0.1994E+00
     12.287  0.5136E-02  0.6084E-02  0.2001E+00  0.2001E+00
     12.396  0.4871E-02  0.3275E-02  0.2006E+00  0.2005E+00
     12.505  0.7329E-02  0.7170E-02  0.2014E+00  0.2012E+00
     12.614  0.5277E-02  0.5823E-02  0.2020E+00  0.2019E+00
     12.723  0.6625E-02  0.6367E-02  0.2027E+00  0.2026E+00
     12.832  0.7282E-02  0.6539E-02  0.2035E+00  0.2033E+00
     12.941  0.8750E-02  0.8271E-02  0.2045E+00  0.2042E+00
     13.050  0.9875E-02  0.8000E-02  0.2055E+00  0.2051E+00
     13.159  0.4686E-02  0.8499E-02  0.2060E+00  0.2060E+00
     13.268  0.5279E-02  0.7664E-02  0.2066E+00  0.2068E+00
     13.377  0.5266E-02  0.6535E-02  0.2072E+00  0.2075E+00
     13.486  0.5146E-02  0.1698E-02  0.2078E+00  0.2077E+00
     13.595  0.1534E-02  0.1767E-02  0.2079E+00  0.2079E+00
     13.705  0.7358E-03  0.7530E-03  0.2080E+00  0.2080E+00
     13.814  0.3072E-06  0.4088E-06  0.2080E+00  0.2080E+00
     13.923  0.0000E+00  0.0000E+00  0.2080E+00  0.2080E+00
     14.032  0.0000E+00  0.0000E+00  0.2080E+00  0.2080E+00
     14.141  0.0000E+00  0.0000E+00  0.2080E+00  0.2080E+00
     14.250  0.0000E+00  0.0000E+00  0.2080E+00  0.2080E+00
     14.359  0.0000E+00  0.0000E+00  0.2080E+00  0.2080E+00
     14.468  0.0000E+00  0.0000E+00  0.2080E+00  0.2080E+00
     14.577  0.0000E+00  0.0000E+00  0.2080E+00  0.2080E+00
     14.686  0.0000E+00  0.0000E+00  0.2080E+00  0.2080E+00
     14.795  0.0000E+00  0.0000E+00  0.2080E+00  0.2080E+00
     14.904  0.0000E+00  0.0000E+00  0.2080E+00  0.2080E+00
     15.013  0.0000E+00  0.0000E+00  0.2080E+00  0.2080E+00
     15.122  0.0000E+00  0.0000E+00  0.2080E+00  0.2080E+00
