 vasp.5.4.1 05Feb16 (build Apr 23 2022 14:15:44) complex                        
  
 executed on           IFC91_ompi date 2024.11.25  16:57:47
 running on   64 total cores
 distrk:  each k-point on   64 cores,    1 groups
 distr:  one band on NCORES_PER_BAND=   8 cores,    8 groups


--------------------------------------------------------------------------------------------------------


 INCAR:
 POTCAR:    PAW_PBE Li 17Jan2003                  
 POTCAR:    PAW_PBE V 08Apr2002                   
 POTCAR:    PAW_PBE O 08Apr2002                   
 POTCAR:    PAW_PBE Li 17Jan2003                  
   VRHFIN =Li: s1p0                                                             
   LEXCH  = PE                                                                  
   EATOM  =     5.3001 eV,    0.3895 Ry                                         
                                                                                
   TITEL  = PAW_PBE Li 17Jan2003                                                
   LULTRA =        F    use ultrasoft PP ?                                      
   IUNSCR =        1    unscreen: 0-lin 1-nonlin 2-no                           
   RPACOR =    1.500    partial core radius                                     
   POMASS =    7.010; ZVAL   =    1.000    mass and valenz                      
   RCORE  =    2.050    outmost cutoff radius                                   
   RWIGS  =    2.600; RWIGS  =    1.376    wigner-seitz radius (au A)           
   ENMAX  =  140.000; ENMIN  =  100.000 eV                                      
   ICORE  =        2    local potential                                         
   LCOR   =        T    correct aug charges                                     
   LPAW   =        T    paw PP                                                  
   EAUG   =  331.638                                                            
   DEXC   =    0.000                                                            
   RMAX   =    2.098    core radius for proj-oper                               
   RAUG   =    1.300    factor for augmentation sphere                          
   RDEP   =    2.094    radius for radial grids                                 
   RDEPT  =    1.810    core radius for aug-charge                              
                                                                                
   Atomic configuration                                                         
    4 entries                                                                   
     n  l   j            E        occ.                                          
     1  0  0.50       -51.8549   2.0000                                         
     2  0  0.50        -2.8742   1.0000                                         
     2  1  0.50        -1.3606   0.0000                                         
     3  2  1.50        -1.3606   0.0000                                         
   Description                                                                  
     l       E           TYP  RCUT    TYP  RCUT                                 
     0     -2.8742052     23  2.050                                             
     0     27.2116520     23  2.050                                             
     1     -1.3605826     23  2.050                                             
     2     -1.3605826     23  2.050                                             
  local pseudopotential read in
  partial core-charges read in
  partial kinetic energy density read in
  atomic valenz-charges read in
  non local Contribution for L=           0  read in
    real space projection operators read in
  non local Contribution for L=           0  read in
    real space projection operators read in
  non local Contribution for L=           1  read in
    real space projection operators read in
    PAW grid and wavefunctions read in
 
   number of l-projection  operators is LMAX  =           3
   number of lm-projection operators is LMMAX =           5
 
 POTCAR:    PAW_PBE V 08Apr2002                   
   VRHFIN =V: p6 d4 s1                                                          
   LEXCH  = PE                                                                  
   EATOM  =   170.8679 eV,   12.5584 Ry                                         
                                                                                
   TITEL  = PAW_PBE V 08Apr2002                                                 
   LULTRA =        F    use ultrasoft PP ?                                      
   IUNSCR =        1    unscreen: 0-lin 1-nonlin 2-no                           
   RPACOR =    2.000    partial core radius                                     
   POMASS =   50.941; ZVAL   =    5.000    mass and valenz                      
   RCORE  =    2.700    outmost cutoff radius                                   
   RWIGS  =    2.500; RWIGS  =    1.323    wigner-seitz radius (au A)           
   ENMAX  =  192.543; ENMIN  =  144.408 eV                                      
   RCLOC  =    1.779    cutoff for local pot                                    
   LCOR   =        T    correct aug charges                                     
   LPAW   =        T    paw PP                                                  
   EAUG   =  358.662                                                            
   DEXC   =    0.000                                                            
   RMAX   =    2.768    core radius for proj-oper                               
   RAUG   =    1.300    factor for augmentation sphere                          
   RDEP   =    2.762    radius for radial grids                                 
   RDEPT  =    2.240    core radius for aug-charge                              
                                                                                
   Atomic configuration                                                         
    9 entries                                                                   
     n  l   j            E        occ.                                          
     1  0  0.50     -5360.7193   2.0000                                         
     2  0  0.50      -598.4546   2.0000                                         
     2  1  1.50      -499.0155   6.0000                                         
     3  0  0.50       -66.5711   2.0000                                         
     3  1  1.50       -40.5282   6.0000                                         
     3  2  2.50        -2.4291   4.0000                                         
     4  0  0.50        -3.8743   1.0000                                         
     4  1  0.50        -2.7212   0.0000                                         
     4  3  2.50        -1.3606   0.0000                                         
   Description                                                                  
     l       E           TYP  RCUT    TYP  RCUT                                 
     2     -2.4290901     23  2.700                                             
     2     -3.7896727     23  2.700                                             
     0     -3.8742752     23  2.700                                             
     0     27.2116520     23  2.700                                             
     1     -2.7211652     23  2.700                                             
     1     27.2116520     23  2.700                                             
  local pseudopotential read in
  partial core-charges read in
  partial kinetic energy density read in
  atomic valenz-charges read in
  non local Contribution for L=           2  read in
    real space projection operators read in
  non local Contribution for L=           2  read in
    real space projection operators read in
  non local Contribution for L=           0  read in
    real space projection operators read in
  non local Contribution for L=           0  read in
    real space projection operators read in
  non local Contribution for L=           1  read in
    real space projection operators read in
  non local Contribution for L=           1  read in
    real space projection operators read in
    PAW grid and wavefunctions read in
 
   number of l-projection  operators is LMAX  =           6
   number of lm-projection operators is LMMAX =          18
 
 POTCAR:    PAW_PBE O 08Apr2002                   
   VRHFIN =O: s2p4                                                              
   LEXCH  = PE                                                                  
   EATOM  =   432.3788 eV,   31.7789 Ry                                         
                                                                                
   TITEL  = PAW_PBE O 08Apr2002                                                 
   LULTRA =        F    use ultrasoft PP ?                                      
   IUNSCR =        1    unscreen: 0-lin 1-nonlin 2-no                           
   RPACOR =    1.200    partial core radius                                     
   POMASS =   16.000; ZVAL   =    6.000    mass and valenz                      
   RCORE  =    1.520    outmost cutoff radius                                   
   RWIGS  =    1.550; RWIGS  =    0.820    wigner-seitz radius (au A)           
   ENMAX  =  400.000; ENMIN  =  300.000 eV                                      
   ICORE  =        2    local potential                                         
   LCOR   =        T    correct aug charges                                     
   LPAW   =        T    paw PP                                                  
   EAUG   =  605.392                                                            
   DEXC   =    0.000                                                            
   RMAX   =    1.553    core radius for proj-oper                               
   RAUG   =    1.300    factor for augmentation sphere                          
   RDEP   =    1.550    radius for radial grids                                 
   RDEPT  =    1.329    core radius for aug-charge                              
                                                                                
   Atomic configuration                                                         
    4 entries                                                                   
     n  l   j            E        occ.                                          
     1  0  0.50      -514.6923   2.0000                                         
     2  0  0.50       -23.9615   2.0000                                         
     2  1  0.50        -9.0305   4.0000                                         
     3  2  1.50        -9.5241   0.0000                                         
   Description                                                                  
     l       E           TYP  RCUT    TYP  RCUT                                 
     0    -23.9615318     23  1.200                                             
     0     -9.5240782     23  1.200                                             
     1     -9.0304911     23  1.520                                             
     1      8.1634956     23  1.520                                             
     2     -9.5240782      7  1.500                                             
  local pseudopotential read in
  partial core-charges read in
  partial kinetic energy density read in
  kinetic energy density of atom read in
  atomic valenz-charges read in
  non local Contribution for L=           0  read in
    real space projection operators read in
  non local Contribution for L=           0  read in
    real space projection operators read in
  non local Contribution for L=           1  read in
    real space projection operators read in
  non local Contribution for L=           1  read in
    real space projection operators read in
    PAW grid and wavefunctions read in
 
   number of l-projection  operators is LMAX  =           4
   number of lm-projection operators is LMMAX =           8
 
 Optimization of the real space projectors (new method)

 maximal supplied QI-value         = 18.33
 optimisation between [QCUT,QGAM] = [ 12.46, 24.93] = [ 43.51,174.03] Ry 
 Optimized for a Real-space Cutoff    1.13 Angstroem

   l    n(q)    QCUT    max X(q) W(low)/X(q) W(high)/X(q)  e(spline) 
   0      8    12.465    33.825    0.12E-03    0.29E-03    0.99E-07
   0      8    12.465     8.944    0.86E-04    0.22E-03    0.72E-07
   1      8    12.465     4.214    0.27E-03    0.11E-03    0.82E-07
 Optimization of the real space projectors (new method)

 maximal supplied QI-value         = 13.98
 optimisation between [QCUT,QGAM] = [ 12.45, 25.03] = [ 43.38,175.46] Ry 
 Optimized for a Real-space Cutoff    1.56 Angstroem

   l    n(q)    QCUT    max X(q) W(low)/X(q) W(high)/X(q)  e(spline) 
   2     11    12.446    96.114    0.19E-03    0.47E-04    0.85E-06
   2     11    12.446    88.986    0.19E-03    0.46E-04    0.86E-06
   0     12    12.446    20.919    0.37E-04    0.64E-04    0.43E-06
   0     12    12.446     9.593    0.25E-04    0.48E-04    0.33E-06
   1     11    12.446    11.615    0.75E-04    0.30E-04    0.59E-06
   1     11    12.446     7.031    0.53E-04    0.23E-04    0.40E-06
 Optimization of the real space projectors (new method)

 maximal supplied QI-value         = 24.76
 optimisation between [QCUT,QGAM] = [ 12.38, 25.00] = [ 42.90,175.06] Ry 
 Optimized for a Real-space Cutoff    1.13 Angstroem

   l    n(q)    QCUT    max X(q) W(low)/X(q) W(high)/X(q)  e(spline) 
   0      8    12.378    20.381    0.16E-03    0.54E-05    0.27E-06
   0      8    12.378    15.268    0.17E-03    0.61E-05    0.29E-06
   1      8    12.378     5.964    0.38E-03    0.23E-03    0.28E-06
   1      8    12.378     5.382    0.33E-03    0.20E-03    0.25E-06
  PAW_PBE Li 17Jan2003                  :
 energy of atom  1       EATOM=   -5.3001
 kinetic energy error for atom=    0.0000 (will be added to EATOM!!)
  PAW_PBE V 08Apr2002                   :
 energy of atom  2       EATOM= -170.8679
 kinetic energy error for atom=    0.0002 (will be added to EATOM!!)
  PAW_PBE O 08Apr2002                   :
 energy of atom  3       EATOM= -432.3788
 kinetic energy error for atom=    0.0168 (will be added to EATOM!!)
 
 
 POSCAR: Li  V  O                                
  positions in cartesian coordinates
  No initial velocities read in
 exchange correlation table for  LEXCH =        8
   RHO(1)=    0.500       N(1)  =     2000
   RHO(2)=  100.500       N(2)  =     4000

 VTST: version 3.1, (03/28/14)

 CHAIN: initializing optimizer
 
 OPT: Using VASP Conjugate-Gradient optimizer
 CHAIN: Read ICHAIN            0
 
 POSCAR: Li  V  O                                
  positions in cartesian coordinates
  No initial velocities read in
 


--------------------------------------------------------------------------------------------------------


 ion  position               nearest neighbor table
   1  0.009  0.670  0.130-  25 1.92  18 1.93  24 1.94  21 1.96  10 2.97   6 3.02  15 3.02  15 3.07
                             2 3.07   2 3.08   6 3.09   4 3.12   5 3.13  14 3.14   5 3.14  14 3.15
   2  0.509  0.332  0.131-  19 1.94  21 1.95  23 1.95  18 1.97  14 3.02   5 3.03   5 3.05   1 3.07
                             1 3.08   3 3.10  14 3.11   6 3.11  15 3.13  15 3.13   9 3.14   6 3.22
   3  0.509  0.332  0.379-  27 1.94  22 1.95  23 1.95  20 1.97  16 3.02   5 3.03   5 3.05   4 3.07
                             4 3.08   2 3.10  16 3.11  12 3.11  15 3.13  15 3.13   8 3.14  12 3.22
   4  0.009  0.670  0.379-  25 1.92  20 1.93  32 1.94  22 1.96   7 2.97  12 3.02  15 3.02  15 3.07
                             3 3.07   3 3.08  12 3.09   1 3.12   5 3.13  16 3.13   5 3.14  16 3.15
   5  0.011  0.172  0.255-  25 1.97  23 1.97  18 1.99  20 1.99   2 3.03   3 3.03   3 3.05   2 3.05
                            15 3.05  15 3.11   4 3.13   1 3.13  16 3.14  14 3.14   1 3.14   4 3.14
   6  0.519  0.821  0.002-  30 1.95  21 1.97  19 1.98  24 1.99  10 2.92  10 2.95   1 3.02  14 3.03
                             9 3.09   1 3.09  17 3.10   2 3.11   9 3.14  15 3.17  14 3.19   2 3.22
   7  0.022  0.671  0.616-  32 1.87  33 1.91  29 1.96  26 2.00  13 2.24  11 2.91  12 2.92  12 2.95
                             4 2.97   8 2.99  16 3.05  17 3.05  16 3.07   8 3.21  17 3.23
   8  0.494  0.327  0.629-  29 1.93  26 1.95  27 1.96  31 1.96  13 2.44   7 2.99  16 3.02  16 3.05
                            11 3.09  12 3.09  17 3.12   3 3.14  12 3.14   9 3.16  17 3.17   7 3.21
   9  0.494  0.327  0.881-  30 1.93  28 1.95  19 1.96  31 1.96  13 2.44  10 2.99  14 3.02  14 3.05
                            11 3.09   6 3.09  17 3.12   2 3.14   6 3.14   8 3.16  17 3.17  10 3.21
  10  0.022  0.671  0.893-  24 1.87  33 1.91  30 1.96  28 2.00  13 2.24  11 2.91   6 2.92   6 2.95
                             1 2.97   9 2.99  14 3.05  17 3.05  14 3.07   9 3.21  17 3.23
  11  0.017  0.100  0.755-  33 1.85  31 1.96  26 2.04  28 2.04  13 2.21  17 2.78  10 2.91   7 2.91
                            17 2.94   8 3.09   9 3.09  16 3.15  14 3.15   8 3.27   9 3.27
  12  0.519  0.821  0.508-  29 1.95  22 1.97  27 1.97  32 1.99   7 2.92   7 2.95   4 3.02  16 3.02
                             8 3.09   4 3.09  17 3.10   3 3.11   8 3.14  15 3.17  16 3.19   3 3.22
  13  0.836  0.472  0.755-  29 2.04  30 2.05  31 2.05  11 2.21  33 2.22   7 2.24  10 2.24  26 2.27
                            28 2.27   8 2.44   9 2.44  17 2.57
  14  0.998  0.169  0.005-  19 1.73  24 1.73  18 1.74  28 1.75   9 3.02   2 3.02   6 3.03  10 3.05
                             9 3.05  10 3.07   2 3.11   1 3.14   5 3.14   1 3.15  11 3.15   6 3.19
  15  0.503  0.832  0.255-  25 1.73  22 1.74  21 1.74  23 1.74   4 3.02   1 3.02   5 3.05   1 3.07
                             4 3.07   5 3.11   3 3.13   2 3.13   3 3.13   2 3.13  12 3.17   6 3.17
  16  0.998  0.169  0.505-  27 1.73  32 1.73  20 1.74  26 1.75   8 3.02   3 3.02  12 3.02   7 3.05
                             8 3.05   7 3.07   3 3.11   4 3.13   5 3.14   4 3.15  11 3.15  12 3.19
  17  0.499  0.832  0.755-  33 1.81  31 1.82  30 1.84  29 1.84  13 2.57  11 2.78  11 2.94   7 3.05
                            10 3.05  12 3.10   6 3.10   8 3.12   9 3.12   9 3.17   8 3.17  10 3.23
  18  0.110  0.329  0.117-  14 1.74   1 1.93   2 1.97   5 1.99
  19  0.648  0.165  0.006-  14 1.73   2 1.94   9 1.96   6 1.98
  20  0.111  0.329  0.393-  16 1.74   4 1.93   3 1.97   5 1.99
  21  0.613  0.677  0.142-  15 1.74   2 1.95   1 1.96   6 1.97
  22  0.613  0.677  0.368-  15 1.74   3 1.95   4 1.96  12 1.97
  23  0.613  0.135  0.255-  15 1.74   3 1.95   2 1.95   5 1.97
  24  0.118  0.869  0.009-  14 1.73  10 1.87   1 1.94   6 1.99
  25  0.151  0.832  0.255-  15 1.73   4 1.92   1 1.92   5 1.97
  26  0.099  0.311  0.624-  16 1.75   8 1.95   7 2.00  11 2.04  13 2.27
  27  0.648  0.165  0.503-  16 1.73   3 1.94   8 1.96  12 1.97
  28  0.099  0.311  0.886-  14 1.75   9 1.95  10 2.00  11 2.04  13 2.27
  29  0.628  0.660  0.640-  17 1.84   8 1.93  12 1.95   7 1.96  13 2.04
  30  0.628  0.660  0.870-  17 1.84   9 1.93   6 1.95  10 1.96  13 2.05
  31  0.624  0.148  0.755-  17 1.82  11 1.96   8 1.96   9 1.96  13 2.05
  32  0.118  0.869  0.501-  16 1.73   7 1.87   4 1.94  12 1.99
  33  0.136  0.776  0.755-  17 1.81  11 1.85  10 1.91   7 1.91  13 2.22
 
  LATTYP: Found a triclinic cell.
 ALAT       =     7.3355249295
 B/A-ratio  =     0.6720794172
 C/A-ratio  =     1.7078125369
 COS(alpha) =     0.0000105907
 COS(beta)  =     0.0001192809
 COS(gamma) =     0.6713291101
  
  Lattice vectors:
  
 A1 = (   4.9284161763,   5.4332892280,  -0.0028547758)
 A2 = (   4.9300540451,  -0.0035059171,  -0.0005233575)
 A3 = (  -0.0011996932,  -0.0034766417, -12.5277008997)


Analysis of symmetry for initial positions (statically):
=====================================================================
 Subroutine PRICEL returns:
 Original cell was already a primitive cell.
 

 Routine SETGRP: Setting up the symmetry group for a 
 triclinic supercell.


 Subroutine GETGRP returns: Found  1 space group operations
 (whereof  1 operations were pure point group operations)
 out of a pool of  2 trial point group operations.


The static configuration has the point symmetry C_1 .


Analysis of symmetry for dynamics (positions and initial velocities):
=====================================================================
 Subroutine PRICEL returns:
 Original cell was already a primitive cell.
 

 Routine SETGRP: Setting up the symmetry group for a 
 triclinic supercell.


 Subroutine GETGRP returns: Found  1 space group operations
 (whereof  1 operations were pure point group operations)
 out of a pool of  2 trial point group operations.


The dynamic configuration has the point symmetry C_1 .


Analysis of structural, dynamic, and magnetic symmetry:
=====================================================================
 Subroutine PRICEL returns:
 Original cell was already a primitive cell.
 

 Routine SETGRP: Setting up the symmetry group for a 
 triclinic supercell.


 Subroutine GETGRP returns: Found  1 space group operations
 (whereof  1 operations were pure point group operations)
 out of a pool of  2 trial point group operations.


The magnetic configuration has the point symmetry C_1 .


 Subroutine INISYM returns: Found  1 space group operations
 (whereof  1 operations are pure point group operations),
 and found     1 'primitive' translations

 
 
 KPOINTS: KPOINTS created by Atomic Simulation Env

Automatic generation of k-mesh.
Space group operators:
 irot       det(A)        alpha          n_x          n_y          n_z        tau_x        tau_y        tau_z
    1     1.000000     0.000000     1.000000     0.000000     0.000000     0.000000     0.000000     0.000000
 
 Subroutine IBZKPT returns following result:
 ===========================================
 
 Found     26 irreducible k-points:
 
 Following reciprocal coordinates:
            Coordinates               Weight
  0.000000  0.000000  0.000000      1.000000
  0.250000  0.000000 -0.000000      2.000000
  0.500000  0.000000 -0.000000      1.000000
  0.000000  0.250000  0.000000      2.000000
  0.250000  0.250000  0.000000      2.000000
  0.500000  0.250000 -0.000000      2.000000
 -0.250000  0.250000  0.000000      2.000000
  0.000000  0.500000  0.000000      1.000000
  0.250000  0.500000 -0.000000      2.000000
  0.500000  0.500000  0.000000      1.000000
  0.000000 -0.000000  0.333333      2.000000
  0.250000  0.000000  0.333333      2.000000
  0.500000 -0.000000  0.333333      2.000000
 -0.250000  0.000000  0.333333      2.000000
 -0.000000  0.250000  0.333333      2.000000
  0.250000  0.250000  0.333333      2.000000
  0.500000  0.250000  0.333333      2.000000
 -0.250000  0.250000  0.333333      2.000000
  0.000000  0.500000  0.333333      2.000000
  0.250000  0.500000  0.333333      2.000000
  0.500000  0.500000  0.333333      2.000000
 -0.250000  0.500000  0.333333      2.000000
  0.000000 -0.250000  0.333333      2.000000
  0.250000 -0.250000  0.333333      2.000000
  0.500000 -0.250000  0.333333      2.000000
 -0.250000 -0.250000  0.333333      2.000000
 
 Following cartesian coordinates:
            Coordinates               Weight
  0.000000  0.000000  0.000000      1.000000
  0.050709  0.000015 -0.000005      2.000000
  0.101419  0.000031 -0.000010      1.000000
  0.000033  0.045983 -0.000013      2.000000
  0.050742  0.045998 -0.000018      2.000000
  0.101451  0.046014 -0.000022      2.000000
 -0.050677  0.045968 -0.000008      2.000000
  0.000065  0.091966 -0.000026      1.000000
  0.050775  0.091981 -0.000030      2.000000
  0.101484  0.091997 -0.000035      1.000000
  0.000003  0.000011  0.026608      2.000000
  0.050712  0.000027  0.026603      2.000000
  0.101422  0.000042  0.026598      2.000000
 -0.050707 -0.000004  0.026613      2.000000
  0.000036  0.045994  0.026595      2.000000
  0.050745  0.046010  0.026590      2.000000
  0.101454  0.046025  0.026585      2.000000
 -0.050674  0.045979  0.026600      2.000000
  0.000068  0.091977  0.026582      2.000000
  0.050778  0.091993  0.026577      2.000000
  0.101487  0.092008  0.026572      2.000000
 -0.050641  0.091962  0.026587      2.000000
 -0.000030 -0.045972  0.026620      2.000000
  0.050680 -0.045956  0.026616      2.000000
  0.101389 -0.045941  0.026611      2.000000
 -0.050739 -0.045987  0.026625      2.000000
 


--------------------------------------------------------------------------------------------------------




 Dimension of arrays:
   k-points           NKPTS =     26   k-points in BZ     NKDIM =     26   number of bands    NBANDS=    104
   number of dos      NEDOS =    301   number of ions     NIONS =     33
   non local maximal  LDIM  =      6   non local SUM 2l+1 LMDIM =     18
   total plane-waves  NPLWV =  86400
   max r-space proj   IRMAX =   4144   max aug-charges    IRDMAX=  15802
   dimension x,y,z NGX =    30 NGY =   36 NGZ =   80
   dimension x,y,z NGXF=    60 NGYF=   72 NGZF=  160
   support grid    NGXF=    60 NGYF=   72 NGZF=  160
   ions per type =              13   4  16
 NGX,Y,Z   is equivalent  to a cutoff of  10.12, 11.01, 10.62 a.u.
 NGXF,Y,Z  is equivalent  to a cutoff of  20.23, 22.02, 21.23 a.u.


 I would recommend the setting:
   dimension x,y,z NGX =    30 NGY =   33 NGZ =   75
 SYSTEM =  unknown system                          
 POSCAR =  Li  V  O                                

 Startparameter for this run:
   NWRITE =      2    write-flag & timer
   PREC   = normal    normal or accurate (medium, high low for compatibility)
   ISTART =      0    job   : 0-new  1-cont  2-samecut
   ICHARG =      2    charge: 1-file 2-atom 10-const
   ISPIN  =      2    spin polarized calculation?
   LNONCOLLINEAR =      F non collinear calculations
   LSORBIT =      F    spin-orbit coupling
   INIWAV =      1    electr: 0-lowe 1-rand  2-diag
   LASPH  =      F    aspherical Exc in radial PAW
   METAGGA=      F    non-selfconsistent MetaGGA calc.

 Electronic Relaxation 1
   ENCUT  =  600.0 eV  44.10 Ry    6.64 a.u.   9.85 10.86 25.02*2*pi/ulx,y,z
   ENINI  =  600.0     initial cutoff
   ENAUG  =  605.4 eV  augmentation charge cutoff
   NELM   =    500;   NELMIN=  2; NELMDL=  0     # of ELM steps 
   EDIFF  = 0.1E-05   stopping-criterion for ELM
   LREAL  =      T    real-space projection
   NLSPLINE    = F    spline interpolate recip. space projectors
   LCOMPAT=      F    compatible to vasp.4.4
   GGA_COMPAT  = T    GGA compatible to vasp.4.4-vasp.4.6
   LMAXPAW     = -100 max onsite density
   LMAXMIX     =    4 max onsite mixed and CHGCAR
   VOSKOWN=      0    Vosko Wilk Nusair interpolation
   ROPT   =   -0.00050  -0.00050  -0.00050
 Ionic relaxation
   EDIFFG = -.1E-01   stopping-criterion for IOM
   NSW    =    500    number of steps for IOM
   NBLOCK =      1;   KBLOCK =    500    inner block; outer block 
   IBRION =      2    ionic relax: 0-MD 1-quasi-New 2-CG
   NFREE  =      1    steps in history (QN), initial steepest desc. (CG)
   ISIF   =      3    stress and relaxation
   IWAVPR =     11    prediction:  0-non 1-charg 2-wave 3-comb
   ISYM   =      2    0-nonsym 1-usesym 2-fastsym
   LCORR  =      T    Harris-Foulkes like correction to forces

   POTIM  = 0.5000    time-step for ionic-motion
   TEIN   =    0.0    initial temperature
   TEBEG  =    0.0;   TEEND  =   0.0 temperature during run
   SMASS  =  -3.00    Nose mass-parameter (am)
   estimated Nose-frequenzy (Omega)   =  0.10E-29 period in steps =****** mass=  -0.555E-27a.u.
   SCALEE = 1.0000    scale energy and forces
   NPACO  =    256;   APACO  = 16.0  distance and # of slots for P.C.
   PSTRESS=    0.0 pullay stress

  Mass of Ions in am
   POMASS =   7.01 50.94 16.00
  Ionic Valenz
   ZVAL   =   1.00  5.00  6.00
  Atomic Wigner-Seitz radii
   RWIGS  =  -1.00 -1.00 -1.00
  virtual crystal weights 
   VCA    =   1.00  1.00  1.00
   NELECT =     129.0000    total number of electrons
   NUPDOWN=      -1.0000    fix difference up-down

 DOS related values:
   EMIN   =  10.00;   EMAX   =-10.00  energy-range for DOS
   EFERMI =   0.00
   ISMEAR =     0;   SIGMA  =   0.03  broadening in eV -4-tet -1-fermi 0-gaus

 Electronic relaxation 2 (details)
   IALGO  =     48    algorithm
   LDIAG  =      T    sub-space diagonalisation (order eigenvalues)
   LSUBROT=      F    optimize rotation matrix (better conditioning)
   TURBO    =      0    0=normal 1=particle mesh
   IRESTART =      0    0=no restart 2=restart with 2 vectors
   NREBOOT  =      0    no. of reboots
   NMIN     =      0    reboot dimension
   EREF     =   0.00    reference energy to select bands
   IMIX   =      4    mixing-type and parameters
     AMIX     =   0.40;   BMIX     =  1.00
     AMIX_MAG =   1.60;   BMIX_MAG =  1.00
     AMIN     =   0.10
     WC   =   100.;   INIMIX=   1;  MIXPRE=   1;  MAXMIX= -45

 Intra band minimization:
   WEIMIN = 0.0010     energy-eigenvalue tresh-hold
   EBREAK =  0.24E-08  absolut break condition
   DEPER  =   0.30     relativ break condition  

   TIME   =   0.40     timestep for ELM

  volume/ion in A,a.u.               =      10.18        68.67
  Fermi-wavevector in a.u.,A,eV,Ry     =   1.190098  2.248959 19.270385  1.416333
  Thomas-Fermi vector in A             =   2.326190
 
 Write flags
   LWAVE  =      F    write WAVECAR
   LCHARG =      F    write CHGCAR
   LVTOT  =      F    write LOCPOT, total local potential
   LVHAR  =      F    write LOCPOT, Hartree potential only
   LELF   =      F    write electronic localiz. function (ELF)
   LORBIT =      0    0 simple, 1 ext, 2 COOP (PROOUT)


 Dipole corrections
   LMONO  =      F    monopole corrections only (constant potential shift)
   LDIPOL =      F    correct potential (dipole corrections)
   IDIPOL =      0    1-x, 2-y, 3-z, 4-all directions 
   EPSILON=  1.0000000 bulk dielectric constant

 LDA+U is selected, type is set to LDAUTYPE =  2
   angular momentum for each species LDAUL =    -1    2   -1
   U (eV)           for each species LDAUU =   0.0  3.0  0.0
   J (eV)           for each species LDAUJ =   0.0  0.0  0.0
 Exchange correlation treatment:
   GGA     =    PE    GGA type
   LEXCH   =     8    internal setting for exchange type
   VOSKOWN=      0    Vosko Wilk Nusair interpolation
   LHFCALC =     F    Hartree Fock is set to
   LHFONE  =     F    Hartree Fock one center treatment
   AEXX    =    0.0000 exact exchange contribution

 Linear response parameters
   LEPSILON=     F    determine dielectric tensor
   LRPA    =     F    only Hartree local field effects (RPA)
   LNABLA  =     F    use nabla operator in PAW spheres
   LVEL    =     F    velocity operator in full k-point grid
   LINTERFAST=   F  fast interpolation
   KINTER  =     0    interpolate to denser k-point grid
   CSHIFT  =0.1000    complex shift for real part using Kramers Kronig
   OMEGAMAX=  -1.0    maximum frequency
   DEG_THRESHOLD= 0.2000000E-02 threshold for treating states as degnerate
   RTIME   =    0.100 relaxation time in fs

 Orbital magnetization related:
   ORBITALMAG=     F  switch on orbital magnetization
   LCHIMAG   =     F  perturbation theory with respect to B field
   DQ        =  0.001000  dq finite difference perturbation B field



--------------------------------------------------------------------------------------------------------


 conjugate gradient relaxation of ions
 charge density and potential will be updated during run
 spin polarized calculation
 RMM-DIIS sequential band-by-band
 perform sub-space diagonalisation
    before iterative eigenvector-optimisation
 modified Broyden-mixing scheme, WC =      100.0
 initial mixing is a Kerker type mixing with AMIX =  0.4000 and BMIX =      1.0000
 Hartree-type preconditioning will be used
 using additional bands           39
 real space projection scheme for non local part
 use partial core corrections
 calculate Harris-corrections to forces 
   (improved forces if not selfconsistent)
 use gradient corrections 
 use of overlap-Matrix (Vanderbilt PP)
 Gauss-broadening in eV      SIGMA  =   0.03


--------------------------------------------------------------------------------------------------------


  energy-cutoff  :      600.00
  volume of cell :      335.79
      direct lattice vectors                 reciprocal lattice vectors
     4.930054045 -0.003505917 -0.000523358     0.202837574  0.000061098 -0.000019441
    -0.001637869  5.436795145 -0.002331418     0.000130794  0.183931906 -0.000051057
     0.001199693  0.003476642 12.527700900     0.000008498  0.000034232  0.079823096

  length of vectors
     4.930055319  5.436795892 12.527701440     0.202837585  0.183931960  0.079823104


 
 k-points in units of 2pi/SCALE and weight: KPOINTS created by Atomic Simulation Env
   0.00000000  0.00000000  0.00000000       0.021
   0.05070939  0.00001527 -0.00000486       0.042
   0.10141879  0.00003055 -0.00000972       0.021
   0.00003270  0.04598298 -0.00001276       0.042
   0.05074209  0.04599825 -0.00001762       0.042
   0.10145149  0.04601353 -0.00002248       0.042
  -0.05067670  0.04596770 -0.00000790       0.042
   0.00006540  0.09196595 -0.00002553       0.021
   0.05077479  0.09198123 -0.00003039       0.042
   0.10148418  0.09199650 -0.00003525       0.021
   0.00000283  0.00001141  0.02660770       0.042
   0.05071223  0.00002669  0.02660284       0.042
   0.10142162  0.00004196  0.02659798       0.042
  -0.05070656 -0.00000386  0.02661256       0.042
   0.00003553  0.04599439  0.02659493       0.042
   0.05074492  0.04600966  0.02659007       0.042
   0.10145432  0.04602494  0.02658521       0.042
  -0.05067386  0.04597911  0.02659979       0.042
   0.00006823  0.09197736  0.02658217       0.042
   0.05077762  0.09199264  0.02657731       0.042
   0.10148702  0.09200791  0.02657245       0.042
  -0.05064116  0.09196209  0.02658703       0.042
  -0.00002987 -0.04597157  0.02662046       0.042
   0.05067953 -0.04595629  0.02661560       0.042
   0.10138892 -0.04594102  0.02661074       0.042
  -0.05073926 -0.04598684  0.02662532       0.042
 
 k-points in reciprocal lattice and weights: KPOINTS created by Atomic Simulation Env
   0.00000000  0.00000000  0.00000000       0.021
   0.25000000  0.00000000 -0.00000000       0.042
   0.50000000  0.00000000 -0.00000000       0.021
   0.00000000  0.25000000  0.00000000       0.042
   0.25000000  0.25000000  0.00000000       0.042
   0.50000000  0.25000000 -0.00000000       0.042
  -0.25000000  0.25000000  0.00000000       0.042
   0.00000000  0.50000000  0.00000000       0.021
   0.25000000  0.50000000 -0.00000000       0.042
   0.50000000  0.50000000  0.00000000       0.021
   0.00000000 -0.00000000  0.33333333       0.042
   0.25000000  0.00000000  0.33333333       0.042
   0.50000000 -0.00000000  0.33333333       0.042
  -0.25000000  0.00000000  0.33333333       0.042
  -0.00000000  0.25000000  0.33333333       0.042
   0.25000000  0.25000000  0.33333333       0.042
   0.50000000  0.25000000  0.33333333       0.042
  -0.25000000  0.25000000  0.33333333       0.042
   0.00000000  0.50000000  0.33333333       0.042
   0.25000000  0.50000000  0.33333333       0.042
   0.50000000  0.50000000  0.33333333       0.042
  -0.25000000  0.50000000  0.33333333       0.042
   0.00000000 -0.25000000  0.33333333       0.042
   0.25000000 -0.25000000  0.33333333       0.042
   0.50000000 -0.25000000  0.33333333       0.042
  -0.25000000 -0.25000000  0.33333333       0.042
 
 position of ions in fractional coordinates (direct lattice) 
   0.00913063  0.67041264  0.13038049
   0.50882732  0.33228320  0.13124336
   0.50899455  0.33232071  0.37856298
   0.00918919  0.67035955  0.37944886
   0.01120122  0.17178246  0.25492652
   0.51851585  0.82118969  0.00213974
   0.02197495  0.67118644  0.61625296
   0.49362914  0.32676962  0.62888080
   0.49356028  0.32699168  0.88086896
   0.02177694  0.67134160  0.89345642
   0.01744943  0.09984796  0.75486799
   0.51871301  0.82110157  0.50761506
   0.83556679  0.47177091  0.75482593
   0.99785315  0.16897975  0.00466381
   0.50277035  0.83157580  0.25494312
   0.99796899  0.16886966  0.50513873
   0.49857948  0.83205917  0.75485208
   0.11045720  0.32861548  0.11656424
   0.64797601  0.16498176  0.00641250
   0.11058723  0.32861770  0.39330196
   0.61283590  0.67722419  0.14153485
   0.61303725  0.67720675  0.36829553
   0.61283083  0.13545444  0.25492849
   0.11796046  0.86944896  0.00907452
   0.15132791  0.83202568  0.25498714
   0.09866329  0.31106972  0.62393880
   0.64808971  0.16478919  0.50337452
   0.09856147  0.31115177  0.88586398
   0.62812569  0.66002774  0.63955056
   0.62810630  0.66023675  0.87016786
   0.62361837  0.14772169  0.75488397
   0.11822835  0.86938169  0.50068407
   0.13642339  0.77635220  0.75488275
 
 position of ions in cartesian coordinates  (Angst):
   0.04407285  3.64531747  1.63180004
   2.50815939  1.80522806  1.64313651
   2.50928051  1.80629124  4.74148258
   0.04466046  3.64589455  4.75205409
   0.05524710  0.93479306  3.19323688
   2.55496873  4.46282970  0.02462017
   0.10797770  3.65116861  7.71865645
   2.43383758  1.77703523  7.87741034
   2.43380007  1.77911888 11.03424216
   0.10733381  3.65297663 11.19137817
   0.08676869  0.54541613  9.45651853
   2.55654727  4.46410725  6.35706380
   4.11952231  2.56461664  9.45469626
   4.91919879  0.91522612  0.05751059
   2.47762886  4.52023094  3.19164929
   4.92037047  0.91636714  6.32731092
   2.45756658  4.52461161  9.45436021
   0.54416157  1.78663307  1.45945804
   3.19429423  0.89472256  0.07961014
   0.54513464  1.78760676  4.92634525
   3.02037469  3.68027269  1.77120662
   3.02163942  3.68096557  4.61199655
   3.02137311  0.73517582  3.19303129
   0.58013830  4.72663389  0.11159410
   0.74499792  4.52390915  3.19238367
   0.48665440  1.69304563  7.81574181
   3.19545129  0.89540297  6.30540202
   0.48646652  1.69440269 11.09706199
   3.09637981  3.58845692  8.01023062
   3.09656056  3.59039511 10.89933463
   3.07513593  0.80357066  9.45628977
   0.58204891  4.72797636  6.27033156
   0.67220874  4.22301403  9.45506390
 


--------------------------------------------------------------------------------------------------------


 k-point  1 :   0.0000 0.0000 0.0000  plane waves:   11197
 k-point  2 :   0.2500 0.0000-0.0000  plane waves:   11194
 k-point  3 :   0.5000 0.0000-0.0000  plane waves:   11208
 k-point  4 :   0.0000 0.2500 0.0000  plane waves:   11184
 k-point  5 :   0.2500 0.2500 0.0000  plane waves:   11214
 k-point  6 :   0.5000 0.2500-0.0000  plane waves:   11208
 k-point  7 :  -0.2500 0.2500 0.0000  plane waves:   11208
 k-point  8 :   0.0000 0.5000 0.0000  plane waves:   11198
 k-point  9 :   0.2500 0.5000-0.0000  plane waves:   11202
 k-point 10 :   0.5000 0.5000 0.0000  plane waves:   11222
 k-point 11 :   0.0000-0.0000 0.3333  plane waves:   11209
 k-point 12 :   0.2500 0.0000 0.3333  plane waves:   11188
 k-point 13 :   0.5000-0.0000 0.3333  plane waves:   11209
 k-point 14 :  -0.2500 0.0000 0.3333  plane waves:   11189
 k-point 15 :  -0.0000 0.2500 0.3333  plane waves:   11216
 k-point 16 :   0.2500 0.2500 0.3333  plane waves:   11202
 k-point 17 :   0.5000 0.2500 0.3333  plane waves:   11212
 k-point 18 :  -0.2500 0.2500 0.3333  plane waves:   11207
 k-point 19 :   0.0000 0.5000 0.3333  plane waves:   11190
 k-point 20 :   0.2500 0.5000 0.3333  plane waves:   11220
 k-point 21 :   0.5000 0.5000 0.3333  plane waves:   11228
 k-point 22 :  -0.2500 0.5000 0.3333  plane waves:   11220
 k-point 23 :   0.0000-0.2500 0.3333  plane waves:   11217
 k-point 24 :   0.2500-0.2500 0.3333  plane waves:   11207
 k-point 25 :   0.5000-0.2500 0.3333  plane waves:   11213
 k-point 26 :  -0.2500-0.2500 0.3333  plane waves:   11202

 maximum and minimum number of plane-waves per node :      1428     1372

 maximum number of plane-waves:     11228
 maximum index in each direction: 
   IXMAX=   10   IYMAX=   11   IZMAX=   25
   IXMIN=  -10   IYMIN=  -11   IZMIN=  -25

 WARNING: aliasing errors must be expected set NGX to  42 to avoid them
 WARNING: aliasing errors must be expected set NGY to  46 to avoid them
 WARNING: aliasing errors must be expected set NGZ to 102 to avoid them
 aliasing errors are usually negligible using standard VASP settings
 and one can safely disregard these warnings

 real space projection operators:
  total allocation   :       4497.53 KBytes
  max/ min on nodes  :        629.33        432.74


 parallel 3D FFT for wavefunctions:
    minimum data exchange during FFTs selected (reduces bandwidth)
 parallel 3D FFT for charge:
    minimum data exchange during FFTs selected (reduces bandwidth)


 total amount of memory used by VASP on root node    51925. kBytes
========================================================================

   base      :      30000. kBytes
   nonlr-proj:       3050. kBytes
   fftplans  :        763. kBytes
   grid      :       1950. kBytes
   one-center:        155. kBytes
   wavefun   :      16007. kBytes
 
     INWAV:  cpu time    0.0000: real time    0.0000
 Broyden mixing: mesh for mixing (old mesh)
   NGX = 19   NGY = 21   NGZ = 51
  (NGX  = 60   NGY  = 72   NGZ  =160)
  gives a total of  20349 points

 initial charge density was supplied:
 charge density of overlapping atoms calculated
 number of electron     129.0000000 magnetization      33.0000000
 keeping initial charge density in first step


--------------------------------------------------------------------------------------------------------


 Maximum index for non-local projection operator          596
 Maximum index for augmentation-charges          774 (set IRDMAX)


--------------------------------------------------------------------------------------------------------


 First call to EWALD:  gamma=   0.255
 Maximum number of real-space cells 4x 3x 2
 Maximum number of reciprocal cells 2x 2x 5

 FEWALD executed in parallel
    FEWALD:  cpu time    0.0016: real time    0.0016


----------------------------------------- Iteration    1(   1)  ---------------------------------------


    POTLOK:  cpu time    0.0159: real time    0.0162
    SETDIJ:  cpu time    0.0053: real time    0.0053
    EDDIAG:  cpu time    0.7440: real time    0.7511
  RMM-DIIS:  cpu time    0.4152: real time    0.4187
    ORTHCH:  cpu time    0.1833: real time    0.1843
       DOS:  cpu time    0.0021: real time    0.0021
    --------------------------------------------
      LOOP:  cpu time    1.3702: real time    1.3828

 eigenvalue-minimisations  :  5408
 total energy-change (2. order) : 0.1719355E+04  (-0.4609957E+04)
 number of electron     129.0000000 magnetization      33.0000000
 augmentation part      129.0000000 magnetization      33.0000000

 Free energy of the ion-electron system (eV)
  ---------------------------------------------------
  alpha Z        PSCENC =       250.70068971
  Ewald energy   TEWEN  =     -5338.12860147
  -Hartree energ DENC   =     -2381.00590056
  -exchange      EXHF   =         0.00000000
  -V(xc)+E(xc)   XCENC  =       208.81129882
  PAW double counting   =      6464.99996438    -6216.90839793
  entropy T*S    EENTRO =        -0.00579092
  eigenvalues    EBANDS =      1060.72783369
  atomic energy  EATOM  =      7670.16376216
  Solvation  Ediel_sol  =         0.00000000
  ---------------------------------------------------
  free energy    TOTEN  =      1719.35485788 eV

  energy without entropy =     1719.36064880  energy(sigma->0) =     1719.35775334


--------------------------------------------------------------------------------------------------------




----------------------------------------- Iteration    1(   2)  ---------------------------------------


    EDDIAG:  cpu time    0.7212: real time    0.7262
  RMM-DIIS:  cpu time    0.4156: real time    0.4185
    ORTHCH:  cpu time    0.1831: real time    0.1841
       DOS:  cpu time    0.0020: real time    0.0020
    --------------------------------------------
      LOOP:  cpu time    1.3232: real time    1.3446

 eigenvalue-minimisations  :  5408
 total energy-change (2. order) :-0.1216419E+04  (-0.1150476E+04)
 number of electron     129.0000000 magnetization      33.0000000
 augmentation part      129.0000000 magnetization      33.0000000

 Free energy of the ion-electron system (eV)
  ---------------------------------------------------
  alpha Z        PSCENC =       250.70068971
  Ewald energy   TEWEN  =     -5338.12860147
  -Hartree energ DENC   =     -2381.00590056
  -exchange      EXHF   =         0.00000000
  -V(xc)+E(xc)   XCENC  =       208.81129882
  PAW double counting   =      6464.99996438    -6216.90839793
  entropy T*S    EENTRO =        -0.00491198
  eigenvalues    EBANDS =      -155.69195534
  atomic energy  EATOM  =      7670.16376216
  Solvation  Ediel_sol  =         0.00000000
  ---------------------------------------------------
  free energy    TOTEN  =       502.93594778 eV

  energy without entropy =      502.94085976  energy(sigma->0) =      502.93840377


--------------------------------------------------------------------------------------------------------




----------------------------------------- Iteration    1(   3)  ---------------------------------------


    EDDIAG:  cpu time    0.7185: real time    0.7238
  RMM-DIIS:  cpu time    0.4109: real time    0.4139
    ORTHCH:  cpu time    0.1856: real time    0.1868
       DOS:  cpu time    0.0022: real time    0.0023
    --------------------------------------------
      LOOP:  cpu time    1.3184: real time    1.3399

 eigenvalue-minimisations  :  5408
 total energy-change (2. order) :-0.3754200E+03  (-0.3342553E+03)
 number of electron     129.0000000 magnetization      33.0000000
 augmentation part      129.0000000 magnetization      33.0000000

 Free energy of the ion-electron system (eV)
  ---------------------------------------------------
  alpha Z        PSCENC =       250.70068971
  Ewald energy   TEWEN  =     -5338.12860147
  -Hartree energ DENC   =     -2381.00590056
  -exchange      EXHF   =         0.00000000
  -V(xc)+E(xc)   XCENC  =       208.81129882
  PAW double counting   =      6464.99996438    -6216.90839793
  entropy T*S    EENTRO =        -0.00768136
  eigenvalues    EBANDS =      -531.10919998
  atomic energy  EATOM  =      7670.16376216
  Solvation  Ediel_sol  =         0.00000000
  ---------------------------------------------------
  free energy    TOTEN  =       127.51593376 eV

  energy without entropy =      127.52361512  energy(sigma->0) =      127.51977444


--------------------------------------------------------------------------------------------------------




----------------------------------------- Iteration    1(   4)  ---------------------------------------


    EDDIAG:  cpu time    0.7199: real time    0.7251
  RMM-DIIS:  cpu time    0.4110: real time    0.4138
    ORTHCH:  cpu time    0.1831: real time    0.1841
       DOS:  cpu time    0.0021: real time    0.0021
    --------------------------------------------
      LOOP:  cpu time    1.3172: real time    1.3386

 eigenvalue-minimisations  :  5408
 total energy-change (2. order) :-0.1866372E+03  (-0.1114573E+03)
 number of electron     129.0000000 magnetization      33.0000000
 augmentation part      129.0000000 magnetization      33.0000000

 Free energy of the ion-electron system (eV)
  ---------------------------------------------------
  alpha Z        PSCENC =       250.70068971
  Ewald energy   TEWEN  =     -5338.12860147
  -Hartree energ DENC   =     -2381.00590056
  -exchange      EXHF   =         0.00000000
  -V(xc)+E(xc)   XCENC  =       208.81129882
  PAW double counting   =      6464.99996438    -6216.90839793
  entropy T*S    EENTRO =        -0.00195983
  eigenvalues    EBANDS =      -717.75208889
  atomic energy  EATOM  =      7670.16376216
  Solvation  Ediel_sol  =         0.00000000
  ---------------------------------------------------
  free energy    TOTEN  =       -59.12123363 eV

  energy without entropy =      -59.11927379  energy(sigma->0) =      -59.12025371


--------------------------------------------------------------------------------------------------------




----------------------------------------- Iteration    1(   5)  ---------------------------------------


    EDDIAG:  cpu time    0.7313: real time    0.7363
  RMM-DIIS:  cpu time    0.4102: real time    0.4130
    ORTHCH:  cpu time    0.1830: real time    0.1841
       DOS:  cpu time    0.0021: real time    0.0021
    --------------------------------------------
      LOOP:  cpu time    1.3278: real time    1.3494

 eigenvalue-minimisations  :  5408
 total energy-change (2. order) :-0.9888578E+02  (-0.7057713E+02)
 number of electron     129.0000000 magnetization      33.0000000
 augmentation part      129.0000000 magnetization      33.0000000

 Free energy of the ion-electron system (eV)
  ---------------------------------------------------
  alpha Z        PSCENC =       250.70068971
  Ewald energy   TEWEN  =     -5338.12860147
  -Hartree energ DENC   =     -2381.00590056
  -exchange      EXHF   =         0.00000000
  -V(xc)+E(xc)   XCENC  =       208.81129882
  PAW double counting   =      6464.99996438    -6216.90839793
  entropy T*S    EENTRO =        -0.00199510
  eigenvalues    EBANDS =      -816.63782902
  atomic energy  EATOM  =      7670.16376216
  Solvation  Ediel_sol  =         0.00000000
  ---------------------------------------------------
  free energy    TOTEN  =      -158.00700902 eV

  energy without entropy =     -158.00501392  energy(sigma->0) =     -158.00601147


--------------------------------------------------------------------------------------------------------




----------------------------------------- Iteration    1(   6)  ---------------------------------------


    EDDIAG:  cpu time    0.7166: real time    0.7218
  RMM-DIIS:  cpu time    0.4145: real time    0.4176
    ORTHCH:  cpu time    0.1833: real time    0.1844
       DOS:  cpu time    0.0022: real time    0.0022
    --------------------------------------------
      LOOP:  cpu time    1.3177: real time    1.3396

 eigenvalue-minimisations  :  5408
 total energy-change (2. order) :-0.4460030E+02  (-0.2921694E+02)
 number of electron     129.0000000 magnetization      33.0000000
 augmentation part      129.0000000 magnetization      33.0000000

 Free energy of the ion-electron system (eV)
  ---------------------------------------------------
  alpha Z        PSCENC =       250.70068971
  Ewald energy   TEWEN  =     -5338.12860147
  -Hartree energ DENC   =     -2381.00590056
  -exchange      EXHF   =         0.00000000
  -V(xc)+E(xc)   XCENC  =       208.81129882
  PAW double counting   =      6464.99996438    -6216.90839793
  entropy T*S    EENTRO =        -0.00164592
  eigenvalues    EBANDS =      -861.23847981
  atomic energy  EATOM  =      7670.16376216
  Solvation  Ediel_sol  =         0.00000000
  ---------------------------------------------------
  free energy    TOTEN  =      -202.60731063 eV

  energy without entropy =     -202.60566471  energy(sigma->0) =     -202.60648767


--------------------------------------------------------------------------------------------------------




----------------------------------------- Iteration    1(   7)  ---------------------------------------


    EDDIAG:  cpu time    0.7165: real time    0.7213
  RMM-DIIS:  cpu time    0.4116: real time    0.4143
    ORTHCH:  cpu time    0.1833: real time    0.1843
       DOS:  cpu time    0.0021: real time    0.0021
    --------------------------------------------
      LOOP:  cpu time    1.3146: real time    1.3392

 eigenvalue-minimisations  :  5408
 total energy-change (2. order) :-0.2447271E+02  (-0.1793447E+02)
 number of electron     129.0000000 magnetization      33.0000000
 augmentation part      129.0000000 magnetization      33.0000000

 Free energy of the ion-electron system (eV)
  ---------------------------------------------------
  alpha Z        PSCENC =       250.70068971
  Ewald energy   TEWEN  =     -5338.12860147
  -Hartree energ DENC   =     -2381.00590056
  -exchange      EXHF   =         0.00000000
  -V(xc)+E(xc)   XCENC  =       208.81129882
  PAW double counting   =      6464.99996438    -6216.90839793
  entropy T*S    EENTRO =        -0.00249917
  eigenvalues    EBANDS =      -885.71033634
  atomic energy  EATOM  =      7670.16376216
  Solvation  Ediel_sol  =         0.00000000
  ---------------------------------------------------
  free energy    TOTEN  =      -227.08002041 eV

  energy without entropy =     -227.07752123  energy(sigma->0) =     -227.07877082


--------------------------------------------------------------------------------------------------------




----------------------------------------- Iteration    1(   8)  ---------------------------------------


    EDDIAG:  cpu time    0.7317: real time    0.7369
  RMM-DIIS:  cpu time    0.4107: real time    0.4135
    ORTHCH:  cpu time    0.1826: real time    0.1837
       DOS:  cpu time    0.0021: real time    0.0022
    --------------------------------------------
      LOOP:  cpu time    1.3282: real time    1.3498

 eigenvalue-minimisations  :  5408
 total energy-change (2. order) :-0.1129142E+02  (-0.7902599E+01)
 number of electron     129.0000000 magnetization      33.0000000
 augmentation part      129.0000000 magnetization      33.0000000

 Free energy of the ion-electron system (eV)
  ---------------------------------------------------
  alpha Z        PSCENC =       250.70068971
  Ewald energy   TEWEN  =     -5338.12860147
  -Hartree energ DENC   =     -2381.00590056
  -exchange      EXHF   =         0.00000000
  -V(xc)+E(xc)   XCENC  =       208.81129882
  PAW double counting   =      6464.99996438    -6216.90839793
  entropy T*S    EENTRO =        -0.00240341
  eigenvalues    EBANDS =      -897.00185339
  atomic energy  EATOM  =      7670.16376216
  Solvation  Ediel_sol  =         0.00000000
  ---------------------------------------------------
  free energy    TOTEN  =      -238.37144170 eV

  energy without entropy =     -238.36903828  energy(sigma->0) =     -238.37023999


--------------------------------------------------------------------------------------------------------




----------------------------------------- Iteration    1(   9)  ---------------------------------------


    EDDIAG:  cpu time    0.7167: real time    0.7218
  RMM-DIIS:  cpu time    0.9753: real time    0.9822
    ORTHCH:  cpu time    0.1820: real time    0.1833
       DOS:  cpu time    0.0021: real time    0.0021
    --------------------------------------------
      LOOP:  cpu time    1.8775: real time    1.9030

 eigenvalue-minimisations  : 14198
 total energy-change (2. order) :-0.1330415E+02  (-0.1177514E+02)
 number of electron     129.0000000 magnetization      33.0000000
 augmentation part      129.0000000 magnetization      33.0000000

 Free energy of the ion-electron system (eV)
  ---------------------------------------------------
  alpha Z        PSCENC =       250.70068971
  Ewald energy   TEWEN  =     -5338.12860147
  -Hartree energ DENC   =     -2381.00590056
  -exchange      EXHF   =         0.00000000
  -V(xc)+E(xc)   XCENC  =       208.81129882
  PAW double counting   =      6464.99996438    -6216.90839793
  entropy T*S    EENTRO =        -0.00174802
  eigenvalues    EBANDS =      -910.30666243
  atomic energy  EATOM  =      7670.16376216
  Solvation  Ediel_sol  =         0.00000000
  ---------------------------------------------------
  free energy    TOTEN  =      -251.67559535 eV

  energy without entropy =     -251.67384733  energy(sigma->0) =     -251.67472134


--------------------------------------------------------------------------------------------------------




----------------------------------------- Iteration    1(  10)  ---------------------------------------


    EDDIAG:  cpu time    0.7160: real time    0.7211
  RMM-DIIS:  cpu time    0.9665: real time    0.9736
    ORTHCH:  cpu time    0.1822: real time    0.1834
       DOS:  cpu time    0.0020: real time    0.0021
    --------------------------------------------
      LOOP:  cpu time    1.8679: real time    1.8936

 eigenvalue-minimisations  : 14199
 total energy-change (2. order) :-0.3128945E+00  (-0.2476588E+00)
 number of electron     129.0000000 magnetization      33.0000000
 augmentation part      129.0000000 magnetization      33.0000000

 Free energy of the ion-electron system (eV)
  ---------------------------------------------------
  alpha Z        PSCENC =       250.70068971
  Ewald energy   TEWEN  =     -5338.12860147
  -Hartree energ DENC   =     -2381.00590056
  -exchange      EXHF   =         0.00000000
  -V(xc)+E(xc)   XCENC  =       208.81129882
  PAW double counting   =      6464.99996438    -6216.90839793
  entropy T*S    EENTRO =        -0.00194076
  eigenvalues    EBANDS =      -910.61936417
  atomic energy  EATOM  =      7670.16376216
  Solvation  Ediel_sol  =         0.00000000
  ---------------------------------------------------
  free energy    TOTEN  =      -251.98848983 eV

  energy without entropy =     -251.98654906  energy(sigma->0) =     -251.98751945


--------------------------------------------------------------------------------------------------------




----------------------------------------- Iteration    1(  11)  ---------------------------------------


    EDDIAG:  cpu time    0.7310: real time    0.7361
  RMM-DIIS:  cpu time    0.9612: real time    0.9675
    ORTHCH:  cpu time    0.1820: real time    0.1830
       DOS:  cpu time    0.0021: real time    0.0021
    --------------------------------------------
      LOOP:  cpu time    1.8776: real time    1.9025

 eigenvalue-minimisations  : 14148
 total energy-change (2. order) :-0.1913006E-01  (-0.1235350E-01)
 number of electron     129.0000000 magnetization      33.0000000
 augmentation part      129.0000000 magnetization      33.0000000

 Free energy of the ion-electron system (eV)
  ---------------------------------------------------
  alpha Z        PSCENC =       250.70068971
  Ewald energy   TEWEN  =     -5338.12860147
  -Hartree energ DENC   =     -2381.00590056
  -exchange      EXHF   =         0.00000000
  -V(xc)+E(xc)   XCENC  =       208.81129882
  PAW double counting   =      6464.99996438    -6216.90839793
  entropy T*S    EENTRO =        -0.00189480
  eigenvalues    EBANDS =      -910.63854019
  atomic energy  EATOM  =      7670.16376216
  Solvation  Ediel_sol  =         0.00000000
  ---------------------------------------------------
  free energy    TOTEN  =      -252.00761989 eV

  energy without entropy =     -252.00572509  energy(sigma->0) =     -252.00667249


--------------------------------------------------------------------------------------------------------




----------------------------------------- Iteration    1(  12)  ---------------------------------------


    EDDIAG:  cpu time    0.7169: real time    0.7229
  RMM-DIIS:  cpu time    0.8753: real time    0.8820
    ORTHCH:  cpu time    0.1829: real time    0.1841
       DOS:  cpu time    0.0020: real time    0.0020
    CHARGE:  cpu time    0.0546: real time    0.0549
    MIXING:  cpu time    0.0006: real time    0.0007
    --------------------------------------------
      LOOP:  cpu time    1.8335: real time    1.8604

 eigenvalue-minimisations  : 12886
 total energy-change (2. order) :-0.2940619E-02  (-0.2335289E-02)
 number of electron     128.9999976 magnetization      22.7094119
 augmentation part       14.7516688 magnetization      21.7802231

 Broyden mixing:
  rms(total) = 0.95162E+01    rms(broyden)= 0.95160E+01
  rms(prec ) = 0.10242E+02
  weight for this iteration     100.00

 Free energy of the ion-electron system (eV)
  ---------------------------------------------------
  alpha Z        PSCENC =       250.70068971
  Ewald energy   TEWEN  =     -5338.12860147
  -Hartree energ DENC   =     -2381.00590056
  -exchange      EXHF   =         0.00000000
  -V(xc)+E(xc)   XCENC  =       208.81129882
  PAW double counting   =      6464.99996438    -6216.90839793
  entropy T*S    EENTRO =        -0.00225884
  eigenvalues    EBANDS =      -910.64111677
  atomic energy  EATOM  =      7670.16376216
  Solvation  Ediel_sol  =         0.00000000
  ---------------------------------------------------
  free energy    TOTEN  =      -252.01056051 eV

  energy without entropy =     -252.00830166  energy(sigma->0) =     -252.00943109


--------------------------------------------------------------------------------------------------------




----------------------------------------- Iteration    1(  13)  ---------------------------------------


    POTLOK:  cpu time    0.0130: real time    0.0131
    SETDIJ:  cpu time    0.0047: real time    0.0047
    EDDIAG:  cpu time    0.7198: real time    0.7256
  RMM-DIIS:  cpu time    0.8307: real time    0.8371
    ORTHCH:  cpu time    0.1844: real time    0.1856
       DOS:  cpu time    0.0022: real time    0.0022
    CHARGE:  cpu time    0.0574: real time    0.0578
    MIXING:  cpu time    0.0005: real time    0.0005
    --------------------------------------------
      LOOP:  cpu time    1.8140: real time    1.8404

 eigenvalue-minimisations  : 12121
 total energy-change (2. order) : 0.5779097E+02  (-0.3906322E+02)
 number of electron     128.9999981 magnetization      19.1743048
 augmentation part       23.9765330 magnetization      15.6511171

 Broyden mixing:
  rms(total) = 0.75206E+01    rms(broyden)= 0.75201E+01
  rms(prec ) = 0.88273E+01
  weight for this iteration     100.00

 eigenvalues of (default mixing * dielectric matrix)
  average eigenvalue GAMMA=   0.6270
  0.6270

 Free energy of the ion-electron system (eV)
  ---------------------------------------------------
  alpha Z        PSCENC =       250.70068971
  Ewald energy   TEWEN  =     -5338.12860147
  -Hartree energ DENC   =     -2669.42454944
  -exchange      EXHF   =         0.00000000
  -V(xc)+E(xc)   XCENC  =       247.58435982
  PAW double counting   =      8270.92779322    -8024.80872329
  entropy T*S    EENTRO =        -0.00708084
  eigenvalues    EBANDS =      -601.22723565
  atomic energy  EATOM  =      7670.16376216
  Solvation  Ediel_sol  =         0.00000000
  ---------------------------------------------------
  free energy    TOTEN  =      -194.21958579 eV

  energy without entropy =     -194.21250495  energy(sigma->0) =     -194.21604537


--------------------------------------------------------------------------------------------------------




----------------------------------------- Iteration    1(  14)  ---------------------------------------


    POTLOK:  cpu time    0.0127: real time    0.0128
    SETDIJ:  cpu time    0.0046: real time    0.0047
    EDDIAG:  cpu time    0.7275: real time    0.7334
  RMM-DIIS:  cpu time    0.9426: real time    0.9497
    ORTHCH:  cpu time    0.1835: real time    0.1847
       DOS:  cpu time    0.0022: real time    0.0022
    CHARGE:  cpu time    0.0545: real time    0.0549
    MIXING:  cpu time    0.0005: real time    0.0005
    --------------------------------------------
      LOOP:  cpu time    1.9295: real time    1.9567

 eigenvalue-minimisations  : 13629
 total energy-change (2. order) :-0.8594214E+01  (-0.6416873E+01)
 number of electron     128.9999980 magnetization      11.0663612
 augmentation part       14.4912653 magnetization       9.7535696

 Broyden mixing:
  rms(total) = 0.41986E+01    rms(broyden)= 0.41984E+01
  rms(prec ) = 0.47333E+01
  weight for this iteration     100.00

 eigenvalues of (default mixing * dielectric matrix)
  average eigenvalue GAMMA=   0.8819
  1.3676  0.3961

 Free energy of the ion-electron system (eV)
  ---------------------------------------------------
  alpha Z        PSCENC =       250.70068971
  Ewald energy   TEWEN  =     -5338.12860147
  -Hartree energ DENC   =     -2609.73441009
  -exchange      EXHF   =         0.00000000
  -V(xc)+E(xc)   XCENC  =       229.79499272
  PAW double counting   =      8664.35989990    -8426.22450505
  entropy T*S    EENTRO =        -0.01030838
  eigenvalues    EBANDS =      -643.73531970
  atomic energy  EATOM  =      7670.16376216
  Solvation  Ediel_sol  =         0.00000000
  ---------------------------------------------------
  free energy    TOTEN  =      -202.81380020 eV

  energy without entropy =     -202.80349182  energy(sigma->0) =     -202.80864601


--------------------------------------------------------------------------------------------------------




----------------------------------------- Iteration    1(  15)  ---------------------------------------


    POTLOK:  cpu time    0.0123: real time    0.0124
    SETDIJ:  cpu time    0.0046: real time    0.0047
    EDDIAG:  cpu time    0.7178: real time    0.7239
  RMM-DIIS:  cpu time    0.8505: real time    0.8565
    ORTHCH:  cpu time    0.1843: real time    0.1854
       DOS:  cpu time    0.0012: real time    0.0012
    CHARGE:  cpu time    0.0541: real time    0.0545
    MIXING:  cpu time    0.0005: real time    0.0005
    --------------------------------------------
      LOOP:  cpu time    1.8269: real time    1.8536

 eigenvalue-minimisations  : 12543
 total energy-change (2. order) : 0.2705622E+01  (-0.1648909E+01)
 number of electron     128.9999980 magnetization       9.2169690
 augmentation part       15.7277348 magnetization       8.5811770

 Broyden mixing:
  rms(total) = 0.20520E+01    rms(broyden)= 0.20520E+01
  rms(prec ) = 0.23458E+01
  weight for this iteration     100.00

 eigenvalues of (default mixing * dielectric matrix)
  average eigenvalue GAMMA=   0.8678
  0.4301  1.0866  1.0866

 Free energy of the ion-electron system (eV)
  ---------------------------------------------------
  alpha Z        PSCENC =       250.70068971
  Ewald energy   TEWEN  =     -5338.12860147
  -Hartree energ DENC   =     -2644.21019445
  -exchange      EXHF   =         0.00000000
  -V(xc)+E(xc)   XCENC  =       228.27357525
  PAW double counting   =      9916.68402013    -9677.71206026
  entropy T*S    EENTRO =        -0.00000000
  eigenvalues    EBANDS =      -605.87936879
  atomic energy  EATOM  =      7670.16376216
  Solvation  Ediel_sol  =         0.00000000
  ---------------------------------------------------
  free energy    TOTEN  =      -200.10817771 eV

  energy without entropy =     -200.10817771  energy(sigma->0) =     -200.10817771


--------------------------------------------------------------------------------------------------------




----------------------------------------- Iteration    1(  16)  ---------------------------------------


    POTLOK:  cpu time    0.0126: real time    0.0127
    SETDIJ:  cpu time    0.0046: real time    0.0047
    EDDIAG:  cpu time    0.7227: real time    0.7278
  RMM-DIIS:  cpu time    0.8703: real time    0.8758
    ORTHCH:  cpu time    0.1819: real time    0.1828
       DOS:  cpu time    0.0021: real time    0.0022
    CHARGE:  cpu time    0.0550: real time    0.0553
    MIXING:  cpu time    0.0005: real time    0.0005
    --------------------------------------------
      LOOP:  cpu time    1.8512: real time    1.8752

 eigenvalue-minimisations  : 12900
 total energy-change (2. order) : 0.1861952E+00  (-0.6033325E+00)
 number of electron     128.9999979 magnetization       7.8083309
 augmentation part       15.8118612 magnetization       7.2636061

 Broyden mixing:
  rms(total) = 0.16938E+01    rms(broyden)= 0.16938E+01
  rms(prec ) = 0.18273E+01
  weight for this iteration     100.00

 eigenvalues of (default mixing * dielectric matrix)
  average eigenvalue GAMMA=   0.7930
  1.1070  1.1070  0.3774  0.5805

 Free energy of the ion-electron system (eV)
  ---------------------------------------------------
  alpha Z        PSCENC =       250.70068971
  Ewald energy   TEWEN  =     -5338.12860147
  -Hartree energ DENC   =     -2626.44063709
  -exchange      EXHF   =         0.00000000
  -V(xc)+E(xc)   XCENC  =       225.89842142
  PAW double counting   =      9936.29817742    -9695.64712765
  entropy T*S    EENTRO =        -0.00979251
  eigenvalues    EBANDS =      -622.75687446
  atomic energy  EATOM  =      7670.16376216
  Solvation  Ediel_sol  =         0.00000000
  ---------------------------------------------------
  free energy    TOTEN  =      -199.92198247 eV

  energy without entropy =     -199.91218996  energy(sigma->0) =     -199.91708622


--------------------------------------------------------------------------------------------------------




----------------------------------------- Iteration    1(  17)  ---------------------------------------


    POTLOK:  cpu time    0.0128: real time    0.0129
    SETDIJ:  cpu time    0.0047: real time    0.0047
    EDDIAG:  cpu time    0.7145: real time    0.7193
  RMM-DIIS:  cpu time    0.8845: real time    0.8904
    ORTHCH:  cpu time    0.1830: real time    0.1842
       DOS:  cpu time    0.0008: real time    0.0008
    CHARGE:  cpu time    0.0542: real time    0.0546
    MIXING:  cpu time    0.0005: real time    0.0005
    --------------------------------------------
      LOOP:  cpu time    1.8564: real time    1.8813

 eigenvalue-minimisations  : 12914
 total energy-change (2. order) :-0.7511225E+00  (-0.1396073E+00)
 number of electron     128.9999980 magnetization       6.9708164
 augmentation part       16.1116154 magnetization       6.5042275

 Broyden mixing:
  rms(total) = 0.11056E+01    rms(broyden)= 0.11056E+01
  rms(prec ) = 0.12014E+01
  weight for this iteration     100.00

 eigenvalues of (default mixing * dielectric matrix)
  average eigenvalue GAMMA=   0.8132
  1.0768  1.0768  0.4160  0.7481  0.7481

 Free energy of the ion-electron system (eV)
  ---------------------------------------------------
  alpha Z        PSCENC =       250.70068971
  Ewald energy   TEWEN  =     -5338.12860147
  -Hartree energ DENC   =     -2624.48785581
  -exchange      EXHF   =         0.00000000
  -V(xc)+E(xc)   XCENC  =       225.45517795
  PAW double counting   =     10035.06439756    -9794.12989523
  entropy T*S    EENTRO =        -0.00000000
  eigenvalues    EBANDS =      -625.31077981
  atomic energy  EATOM  =      7670.16376216
  Solvation  Ediel_sol  =         0.00000000
  ---------------------------------------------------
  free energy    TOTEN  =      -200.67310494 eV

  energy without entropy =     -200.67310494  energy(sigma->0) =     -200.67310494


--------------------------------------------------------------------------------------------------------




----------------------------------------- Iteration    1(  18)  ---------------------------------------


    POTLOK:  cpu time    0.0127: real time    0.0128
    SETDIJ:  cpu time    0.0047: real time    0.0048
    EDDIAG:  cpu time    0.7279: real time    0.7329
  RMM-DIIS:  cpu time    0.8629: real time    0.8687
    ORTHCH:  cpu time    0.1814: real time    0.1825
       DOS:  cpu time    0.0007: real time    0.0007
    CHARGE:  cpu time    0.0542: real time    0.0545
    MIXING:  cpu time    0.0006: real time    0.0006
    --------------------------------------------
      LOOP:  cpu time    1.8467: real time    1.8714

 eigenvalue-minimisations  : 12675
 total energy-change (2. order) :-0.1969258E+00  (-0.7809350E-01)
 number of electron     128.9999979 magnetization       6.5185000
 augmentation part       16.3543720 magnetization       6.0842915

 Broyden mixing:
  rms(total) = 0.92421E+00    rms(broyden)= 0.92420E+00
  rms(prec ) = 0.96429E+00
  weight for this iteration     100.00

 eigenvalues of (default mixing * dielectric matrix)
  average eigenvalue GAMMA=   0.8281
  1.1002  1.1002  0.8999  0.8999  0.4063  0.5622

 Free energy of the ion-electron system (eV)
  ---------------------------------------------------
  alpha Z        PSCENC =       250.70068971
  Ewald energy   TEWEN  =     -5338.12860147
  -Hartree energ DENC   =     -2625.32395121
  -exchange      EXHF   =         0.00000000
  -V(xc)+E(xc)   XCENC  =       225.62869155
  PAW double counting   =     10047.22422949    -9805.50986240
  entropy T*S    EENTRO =        -0.00000000
  eigenvalues    EBANDS =      -625.62498856
  atomic energy  EATOM  =      7670.16376216
  Solvation  Ediel_sol  =         0.00000000
  ---------------------------------------------------
  free energy    TOTEN  =      -200.87003073 eV

  energy without entropy =     -200.87003073  energy(sigma->0) =     -200.87003073


--------------------------------------------------------------------------------------------------------




----------------------------------------- Iteration    1(  19)  ---------------------------------------


    POTLOK:  cpu time    0.0122: real time    0.0123
    SETDIJ:  cpu time    0.0046: real time    0.0047
    EDDIAG:  cpu time    0.7152: real time    0.7200
  RMM-DIIS:  cpu time    0.9380: real time    0.9444
    ORTHCH:  cpu time    0.1822: real time    0.1832
       DOS:  cpu time    0.0008: real time    0.0008
    CHARGE:  cpu time    0.0543: real time    0.0546
    MIXING:  cpu time    0.0006: real time    0.0006
    --------------------------------------------
      LOOP:  cpu time    1.9093: real time    1.9343

 eigenvalue-minimisations  : 13768
 total energy-change (2. order) :-0.9575925E-01  (-0.2041847E-01)
 number of electron     128.9999979 magnetization       4.0922385
 augmentation part       16.4020439 magnetization       3.6696842

 Broyden mixing:
  rms(total) = 0.72351E+00    rms(broyden)= 0.72351E+00
  rms(prec ) = 0.76333E+00
  weight for this iteration     100.00

 eigenvalues of (default mixing * dielectric matrix)
  average eigenvalue GAMMA=   0.9929
  1.7340  1.7340  0.8737  0.8737  0.7713  0.4123  0.5510

 Free energy of the ion-electron system (eV)
  ---------------------------------------------------
  alpha Z        PSCENC =       250.70068971
  Ewald energy   TEWEN  =     -5338.12860147
  -Hartree energ DENC   =     -2623.48206139
  -exchange      EXHF   =         0.00000000
  -V(xc)+E(xc)   XCENC  =       225.41838843
  PAW double counting   =     10018.38418136    -9776.39636711
  entropy T*S    EENTRO =        -0.00000000
  eigenvalues    EBANDS =      -627.62578167
  atomic energy  EATOM  =      7670.16376216
  Solvation  Ediel_sol  =         0.00000000
  ---------------------------------------------------
  free energy    TOTEN  =      -200.96578999 eV

  energy without entropy =     -200.96578999  energy(sigma->0) =     -200.96578999


--------------------------------------------------------------------------------------------------------




----------------------------------------- Iteration    1(  20)  ---------------------------------------


    POTLOK:  cpu time    0.0126: real time    0.0126
    SETDIJ:  cpu time    0.0047: real time    0.0047
    EDDIAG:  cpu time    0.7154: real time    0.7204
  RMM-DIIS:  cpu time    0.8653: real time    0.8715
    ORTHCH:  cpu time    0.1839: real time    0.1849
       DOS:  cpu time    0.0022: real time    0.0022
    CHARGE:  cpu time    0.0579: real time    0.0583
    MIXING:  cpu time    0.0007: real time    0.0007
    --------------------------------------------
      LOOP:  cpu time    1.8441: real time    1.8695

 eigenvalue-minimisations  : 12559
 total energy-change (2. order) :-0.6861872E+00  (-0.6035890E-01)
 number of electron     128.9999980 magnetization       2.0781451
 augmentation part       16.7231770 magnetization       1.7366575

 Broyden mixing:
  rms(total) = 0.47024E+00    rms(broyden)= 0.47022E+00
  rms(prec ) = 0.56350E+00
  weight for this iteration     100.00

 eigenvalues of (default mixing * dielectric matrix)
  average eigenvalue GAMMA=   1.0028
  1.9254  1.9254  1.0134  0.8765  0.8765  0.6040  0.4111  0.3901

 Free energy of the ion-electron system (eV)
  ---------------------------------------------------
  alpha Z        PSCENC =       250.70068971
  Ewald energy   TEWEN  =     -5338.12860147
  -Hartree energ DENC   =     -2620.89559957
  -exchange      EXHF   =         0.00000000
  -V(xc)+E(xc)   XCENC  =       225.20738133
  PAW double counting   =     10014.72641675    -9771.31855618
  entropy T*S    EENTRO =        -0.00358454
  eigenvalues    EBANDS =      -632.10388533
  atomic energy  EATOM  =      7670.16376216
  Solvation  Ediel_sol  =         0.00000000
  ---------------------------------------------------
  free energy    TOTEN  =      -201.65197714 eV

  energy without entropy =     -201.64839259  energy(sigma->0) =     -201.65018487


--------------------------------------------------------------------------------------------------------




----------------------------------------- Iteration    1(  21)  ---------------------------------------


    POTLOK:  cpu time    0.0121: real time    0.0122
    SETDIJ:  cpu time    0.0047: real time    0.0047
    EDDIAG:  cpu time    0.7150: real time    0.7200
  RMM-DIIS:  cpu time    0.8972: real time    0.9032
    ORTHCH:  cpu time    0.1832: real time    0.1842
       DOS:  cpu time    0.0008: real time    0.0008
    CHARGE:  cpu time    0.0539: real time    0.0541
    MIXING:  cpu time    0.0007: real time    0.0007
    --------------------------------------------
      LOOP:  cpu time    1.8690: real time    1.8936

 eigenvalue-minimisations  : 13316
 total energy-change (2. order) : 0.5022220E-02  (-0.3134220E-01)
 number of electron     128.9999980 magnetization       1.3634822
 augmentation part       16.8065271 magnetization       1.0111120

 Broyden mixing:
  rms(total) = 0.35783E+00    rms(broyden)= 0.35782E+00
  rms(prec ) = 0.36926E+00
  weight for this iteration     100.00

 eigenvalues of (default mixing * dielectric matrix)
  average eigenvalue GAMMA=   0.9834
  1.9059  1.9059  1.2761  0.9676  0.9676  0.6291  0.4113  0.4456  0.3414

 Free energy of the ion-electron system (eV)
  ---------------------------------------------------
  alpha Z        PSCENC =       250.70068971
  Ewald energy   TEWEN  =     -5338.12860147
  -Hartree energ DENC   =     -2620.66447729
  -exchange      EXHF   =         0.00000000
  -V(xc)+E(xc)   XCENC  =       225.21145762
  PAW double counting   =     10097.99187287    -9853.88778437
  entropy T*S    EENTRO =        -0.00000000
  eigenvalues    EBANDS =      -633.03387414
  atomic energy  EATOM  =      7670.16376216
  Solvation  Ediel_sol  =         0.00000000
  ---------------------------------------------------
  free energy    TOTEN  =      -201.64695492 eV

  energy without entropy =     -201.64695492  energy(sigma->0) =     -201.64695492


--------------------------------------------------------------------------------------------------------




----------------------------------------- Iteration    1(  22)  ---------------------------------------


    POTLOK:  cpu time    0.0126: real time    0.0127
    SETDIJ:  cpu time    0.0047: real time    0.0047
    EDDIAG:  cpu time    0.7154: real time    0.7204
  RMM-DIIS:  cpu time    0.9087: real time    0.9146
    ORTHCH:  cpu time    0.1818: real time    0.1829
       DOS:  cpu time    0.0008: real time    0.0008
    CHARGE:  cpu time    0.0541: real time    0.0544
    MIXING:  cpu time    0.0007: real time    0.0007
    --------------------------------------------
      LOOP:  cpu time    1.8801: real time    1.9048

 eigenvalue-minimisations  : 13468
 total energy-change (2. order) :-0.7651378E-01  (-0.6081049E-02)
 number of electron     128.9999980 magnetization       1.2777564
 augmentation part       16.8391783 magnetization       0.9629798

 Broyden mixing:
  rms(total) = 0.21157E+00    rms(broyden)= 0.21157E+00
  rms(prec ) = 0.22501E+00
  weight for this iteration     100.00

 eigenvalues of (default mixing * dielectric matrix)
  average eigenvalue GAMMA=   0.9947
  2.5823  1.2436  1.2436  1.1067  1.1067  0.7424  0.5568  0.5568  0.4039  0.4039

 Free energy of the ion-electron system (eV)
  ---------------------------------------------------
  alpha Z        PSCENC =       250.70068971
  Ewald energy   TEWEN  =     -5338.12860147
  -Hartree energ DENC   =     -2622.95007283
  -exchange      EXHF   =         0.00000000
[...]
     56      -0.1935      1.00000
     57      -0.1350      1.00000
     58      -0.1114      1.00000
     59      -0.0927      1.00000
     60      -0.0473      1.00000
     61       0.0195      1.00000
     62       0.2330      1.00000
     63       0.2676      1.00000
     64       0.4347      1.00000
     65       4.1514      0.00000
     66       4.1637      0.00000
     67       4.2076      0.00000
     68       4.2425      0.00000
     69       4.2781      0.00000
     70       4.2818      0.00000
     71       4.8792      0.00000
     72       4.9764      0.00000
     73       5.0173      0.00000
     74       5.0490      0.00000
     75       5.1048      0.00000
     76       5.1266      0.00000
     77       5.1986      0.00000
     78       5.4459      0.00000
     79       5.4704      0.00000
     80       5.5159      0.00000
     81       5.7456      0.00000
     82       5.9379      0.00000
     83       6.1796      0.00000
     84       6.2459      0.00000
     85       8.6054      0.00000
     86       8.7101      0.00000
     87       8.7815      0.00000
     88       8.8621      0.00000
     89       9.4122      0.00000
     90       9.4547      0.00000
     91       9.5164      0.00000
     92      10.1703      0.00000
     93      10.2368      0.00000
     94      10.2879      0.00000
     95      10.3529      0.00000
     96      10.5779      0.00000
     97      10.6752      0.00000
     98      10.7152      0.00000
     99      10.9304      0.00000
    100      11.5535      0.00000
    101      12.4142      0.00000
    102      12.8315      0.00000
    103      12.9936      0.00000
    104      13.2188      0.00000

 k-point    26 :      -0.2500   -0.2500    0.3333
  band No.  band energies     occupation 
      1     -15.9885      1.00000
      2     -15.9343      1.00000
      3     -15.7989      1.00000
      4     -15.5702      1.00000
      5     -15.5505      1.00000
      6     -15.5284      1.00000
      7     -15.5165      1.00000
      8     -15.4972      1.00000
      9     -15.4850      1.00000
     10     -15.4480      1.00000
     11     -15.3864      1.00000
     12     -15.3853      1.00000
     13     -15.1837      1.00000
     14     -14.8790      1.00000
     15     -14.7281      1.00000
     16     -14.6883      1.00000
     17      -3.0135      1.00000
     18      -2.9870      1.00000
     19      -2.9550      1.00000
     20      -2.8648      1.00000
     21      -2.7756      1.00000
     22      -2.7271      1.00000
     23      -2.6900      1.00000
     24      -2.6838      1.00000
     25      -2.5576      1.00000
     26      -2.4932      1.00000
     27      -2.4472      1.00000
     28      -2.3955      1.00000
     29      -2.3171      1.00000
     30      -2.2048      1.00000
     31      -2.1661      1.00000
     32      -2.0397      1.00000
     33      -1.9814      1.00000
     34      -1.9476      1.00000
     35      -1.8653      1.00000
     36      -1.6795      1.00000
     37      -1.6355      1.00000
     38      -1.5912      1.00000
     39      -1.4642      1.00000
     40      -1.3648      1.00000
     41      -1.2897      1.00000
     42      -1.1752      1.00000
     43      -1.1055      1.00000
     44      -1.0132      1.00000
     45      -0.9186      1.00000
     46      -0.8830      1.00000
     47      -0.8169      1.00000
     48      -0.8009      1.00000
     49      -0.7510      1.00000
     50      -0.7130      1.00000
     51      -0.5138      1.00000
     52      -0.4763      1.00000
     53      -0.4232      1.00000
     54      -0.3792      1.00000
     55      -0.3583      1.00000
     56      -0.2804      1.00000
     57      -0.2279      1.00000
     58      -0.2100      1.00000
     59      -0.1306      1.00000
     60      -0.1104      1.00000
     61      -0.0681      1.00000
     62       0.1797      1.00000
     63       0.2734      1.00000
     64       0.3042      1.00000
     65       4.1709      0.00000
     66       4.1976      0.00000
     67       4.2502      0.00000
     68       4.2687      0.00000
     69       4.3000      0.00000
     70       4.3202      0.00000
     71       4.8921      0.00000
     72       4.9848      0.00000
     73       5.0230      0.00000
     74       5.0301      0.00000
     75       5.0758      0.00000
     76       5.1627      0.00000
     77       5.1917      0.00000
     78       5.2070      0.00000
     79       5.2239      0.00000
     80       5.2735      0.00000
     81       5.6634      0.00000
     82       6.0075      0.00000
     83       6.0450      0.00000
     84       6.3022      0.00000
     85       7.6571      0.00000
     86       7.9093      0.00000
     87       8.6902      0.00000
     88       9.0478      0.00000
     89       9.6001      0.00000
     90       9.8013      0.00000
     91      10.2661      0.00000
     92      10.4553      0.00000
     93      10.5840      0.00000
     94      10.6780      0.00000
     95      10.8163      0.00000
     96      10.9155      0.00000
     97      11.0187      0.00000
     98      11.3291      0.00000
     99      11.4161      0.00000
    100      12.0987      0.00000
    101      12.6585      0.00000
    102      12.8519      0.00000
    103      13.1544      0.00000
    104      13.3306      0.00000


--------------------------------------------------------------------------------------------------------


 soft charge-density along one line, spin component           1
         0         1         2         3         4         5         6         7         8         9
 total charge-density along one line
 
 soft charge-density along one line, spin component           2
         0         1         2         3         4         5         6         7         8         9
 total charge-density along one line
 
 pseudopotential strength for first ion, spin component:           1
  1.181   5.289  -0.001  -0.000   0.000
  5.289  22.640  -0.002  -0.002   0.001
 -0.001  -0.002  -0.323  -0.000   0.000
 -0.000  -0.002  -0.000  -0.323  -0.000
  0.000   0.001   0.000  -0.000  -0.323
 pseudopotential strength for first ion, spin component:           2
  1.181   5.289  -0.001  -0.000   0.000
  5.289  22.640  -0.002  -0.002   0.001
 -0.001  -0.002  -0.323  -0.000   0.000
 -0.000  -0.002  -0.000  -0.323  -0.000
  0.000   0.001   0.000  -0.000  -0.323
 total augmentation occupancy for first ion, spin component:           1
  1.154  -0.031   0.009   0.006  -0.002
 -0.031   0.001  -0.000  -0.000   0.000
  0.009  -0.000   0.117   0.003   0.003
  0.006  -0.000   0.003   0.107   0.001
 -0.002   0.000   0.003   0.001   0.101
 total augmentation occupancy for first ion, spin component:           2
  0.000   0.000   0.000  -0.000  -0.000
  0.000  -0.000  -0.000  -0.000   0.000
  0.000  -0.000   0.000  -0.000  -0.000
 -0.000  -0.000  -0.000   0.000   0.000
 -0.000   0.000  -0.000   0.000   0.000


------------------------ aborting loop because EDIFF is reached ----------------------------------------


    CHARGE:  cpu time    0.0550: real time    0.0554
    FORLOC:  cpu time    0.0011: real time    0.0011
    FORNL :  cpu time    0.3749: real time    0.3772
    STRESS:  cpu time    1.1307: real time    1.1374
    FORCOR:  cpu time    0.0125: real time    0.0126
    FORHAR:  cpu time    0.0023: real time    0.0024
    MIXING:  cpu time    0.0011: real time    0.0011
    OFIELD:  cpu time    0.0000: real time    0.0000

 ---------------------------------------------------------------------------------------------

         DFTD3 V3.0 Rev 1        
 IVDW         = 12
 DF pbe       
 parameters
 VDW_S6       =    1.0000
 VDW_S8       =    0.7875
 VDW_A1       =    0.4289
 VDW_A2       =    4.4407
 k1-k3        =   16.0000    1.3333   -4.0000
 VDW_RADIUS   =   50.2022 A
 VDW_CNRADIUS =   21.1671 A
 Edisp (eV)   -6.79747

 E6    (eV) :    -4.1796
 E8    (eV) :    -2.6179
 % E8        : 38.51
    FORVDW:  cpu time    0.1962: real time    0.1975

  FORCE on cell =-STRESS in cart. coord.  units (eV):
  Direction    XX          YY          ZZ          XY          YZ          ZX
  --------------------------------------------------------------------------------------
  Alpha Z   250.70069   250.70069   250.70069
  Ewald   -1699.96566 -1843.97824 -1794.20441    -0.93547     0.17575    -0.03653
  Hartree   945.40662   812.29888   870.38559    -0.91733     0.18475    -0.00487
  E(xc)    -605.29935  -606.00015  -605.48501     0.59131     0.00063    -0.00047
  Local   -1023.91292  -745.11051  -853.96487     4.85415    -0.36491     0.03972
  n-local  -342.88186  -341.04749  -341.88310     1.58449    -0.00900    -0.00243
  augment   178.84170   179.64993   178.77216    -2.44596     0.00068     0.00102
  Kinetic  2304.10618  2300.52996  2302.71231    -2.73019     0.01349     0.00458
  Fock        0.00000     0.00000     0.00000     0.00000     0.00000     0.00000
  vdW        -6.97273    -7.04131    -7.01024    -0.00103     0.00003     0.00001
  -------------------------------------------------------------------------------------
  Total       0.02268     0.00177     0.02312    -0.00004     0.00140     0.00104
  in kB       0.10822     0.00845     0.11031    -0.00018     0.00668     0.00496
  external pressure =        0.08 kB  Pullay stress =        0.00 kB


 VOLUME and BASIS-vectors are now :
 -----------------------------------------------------------------------------
  energy-cutoff  :      600.00
  volume of cell :      335.79
      direct lattice vectors                 reciprocal lattice vectors
     4.930054045 -0.003505917 -0.000523358     0.202837574  0.000061098 -0.000019441
    -0.001637869  5.436795145 -0.002331418     0.000130794  0.183931906 -0.000051057
     0.001199693  0.003476642 12.527700900     0.000008498  0.000034232  0.079823096

  length of vectors
     4.930055319  5.436795892 12.527701440     0.202837585  0.183931960  0.079823104


 FORCES acting on ions
    electron-ion (+dipol)            ewald-force                    non-local-force                 convergence-correction
 -----------------------------------------------------------------------------------------------
   0.251E+00 0.483E+01 0.490E+00   -.273E+00 -.473E+01 -.411E+00   0.236E-01 -.949E-01 -.722E-01   0.995E-05 -.498E-04 -.338E-03
   0.575E+00 -.452E+01 -.211E+01   -.593E+00 0.441E+01 0.204E+01   0.205E-01 0.105E+00 0.767E-01   -.220E-04 0.197E-04 -.326E-03
   0.577E+00 -.453E+01 0.212E+01   -.595E+00 0.442E+01 -.205E+01   0.203E-01 0.107E+00 -.727E-01   -.249E-04 0.235E-04 0.351E-03
   0.265E+00 0.488E+01 -.461E+00   -.286E+00 -.478E+01 0.382E+00   0.212E-01 -.989E-01 0.736E-01   0.135E-04 -.519E-04 0.364E-03
   -.136E+01 -.826E+01 0.406E-01   0.113E+01 0.794E+01 -.404E-01   0.228E+00 0.321E+00 0.671E-04   0.229E-04 0.661E-04 0.149E-04
   0.589E+00 0.715E+01 -.241E+00   -.553E+00 -.707E+01 0.475E-01   -.359E-01 -.679E-01 0.206E+00   0.457E-05 -.481E-04 -.376E-03
   -.255E+01 0.276E+01 0.646E+01   0.232E+01 -.234E+01 -.614E+01   0.229E+00 -.421E+00 -.317E+00   -.243E-04 -.708E-04 0.195E-03
   0.301E+01 -.204E+01 0.208E+01   -.286E+01 0.218E+01 -.186E+01   -.148E+00 -.138E+00 -.221E+00   0.218E-04 0.599E-04 0.195E-03
   0.301E+01 -.204E+01 -.212E+01   -.286E+01 0.218E+01 0.190E+01   -.146E+00 -.137E+00 0.221E+00   0.275E-04 0.427E-04 -.220E-03
   -.257E+01 0.277E+01 -.649E+01   0.234E+01 -.235E+01 0.618E+01   0.230E+00 -.422E+00 0.318E+00   -.354E-04 -.635E-04 -.216E-03
   -.410E+01 -.434E+01 -.261E-01   0.372E+01 0.349E+01 0.268E-01   0.374E+00 0.852E+00 0.238E-03   -.272E-04 0.114E-03 -.145E-04
   0.584E+00 0.715E+01 0.193E+00   -.548E+00 -.707E+01 -.262E-02   -.357E-01 -.669E-01 -.201E+00   -.305E-05 -.584E-04 0.379E-03
   -.659E+01 0.522E+01 -.413E-01   0.570E+01 -.482E+01 0.392E-01   0.893E+00 -.392E+00 0.200E-02   0.201E-04 -.798E-04 -.227E-04
   -.846E+01 -.102E+02 -.520E+01   0.835E+01 0.101E+02 0.522E+01   0.102E+00 0.837E-01 -.761E-02   0.323E-04 0.254E-03 -.202E-02
   -.483E+01 0.789E+01 0.162E+00   0.475E+01 -.788E+01 -.164E+00   0.875E-01 -.115E-02 0.297E-02   -.136E-03 0.120E-04 0.100E-03
   -.838E+01 -.101E+02 0.518E+01   0.828E+01 0.100E+02 -.520E+01   0.103E+00 0.831E-01 0.104E-01   0.602E-04 0.286E-03 0.202E-02
   0.975E+01 -.199E+02 -.194E-01   -.943E+01 0.188E+02 0.243E-01   -.315E+00 0.112E+01 -.422E-02   0.394E-04 -.109E-03 -.101E-03
   -.306E+02 -.637E+02 -.876E+02   0.358E+02 0.716E+02 0.101E+03   -.516E+01 -.796E+01 -.130E+02   0.639E-03 0.725E-03 -.173E-02
   0.939E+02 -.117E+02 -.744E+01   -.111E+03 0.111E+02 0.757E+01   0.174E+02 0.585E+00 -.126E+00   -.157E-02 0.314E-03 -.348E-02
   -.306E+02 -.637E+02 0.878E+02   0.358E+02 0.716E+02 -.101E+03   -.517E+01 -.796E+01 0.130E+02   0.768E-03 0.891E-03 0.166E-02
   -.277E+02 0.640E+02 0.802E+02   0.326E+02 -.717E+02 -.936E+02   -.486E+01 0.769E+01 0.134E+02   -.109E-03 -.534E-03 -.321E-02
   -.278E+02 0.641E+02 -.799E+02   0.326E+02 -.718E+02 0.933E+02   -.488E+01 0.768E+01 -.134E+02   -.158E-03 -.536E-03 0.339E-02
   -.282E+02 -.107E+03 0.267E+00   0.334E+02 0.122E+03 -.281E+00   -.519E+01 -.152E+02 0.148E-01   -.396E-03 0.719E-03 0.102E-03
   -.352E+02 0.103E+03 -.476E+01   0.416E+02 -.118E+03 0.640E+01   -.644E+01 0.144E+02 -.163E+01   0.641E-03 -.152E-02 -.346E-02
   0.890E+02 0.146E+02 0.243E+00   -.106E+03 -.141E+02 -.233E+00   0.169E+02 -.495E+00 -.105E-01   -.137E-03 0.416E-03 0.147E-03
   -.395E+02 -.459E+02 -.684E+02   0.439E+02 0.527E+02 0.822E+02   -.442E+01 -.677E+01 -.138E+02   0.812E-03 0.109E-02 0.291E-02
   0.938E+02 -.117E+02 0.739E+01   -.111E+03 0.111E+02 -.753E+01   0.174E+02 0.589E+00 0.135E+00   -.187E-02 0.366E-03 0.345E-02
   -.395E+02 -.459E+02 0.682E+02   0.439E+02 0.527E+02 -.820E+02   -.441E+01 -.676E+01 0.138E+02   0.668E-03 0.818E-03 -.285E-02
   -.895E+01 0.368E+02 0.857E+02   0.123E+02 -.420E+02 -.966E+02   -.339E+01 0.519E+01 0.109E+02   0.133E-02 -.306E-02 -.222E-02
   -.894E+01 0.368E+02 -.860E+02   0.123E+02 -.420E+02 0.969E+02   -.340E+01 0.518E+01 -.109E+02   0.161E-02 -.281E-02 0.210E-02
   -.594E+01 -.644E+02 -.126E+00   0.893E+01 0.741E+02 0.132E+00   -.299E+01 -.970E+01 -.587E-02   0.639E-03 0.489E-02 0.871E-04
   -.351E+02 0.103E+03 0.455E+01   0.416E+02 -.118E+03 -.619E+01   -.645E+01 0.144E+02 0.163E+01   0.814E-03 -.183E-02 0.350E-02
   0.533E+02 0.868E+01 -.142E+00   -.651E+02 -.125E+02 0.149E+00   0.118E+02 0.384E+01 -.585E-02   -.431E-02 -.407E-03 -.309E-03
 -----------------------------------------------------------------------------------------------
   -.836E+01 -.555E+01 -.609E-02   0.142E-13 0.728E-13 -.213E-13   0.836E+01 0.558E+01 0.193E-01   -.649E-03 -.118E-03 0.797E-04
 
 
 POSITION                                       TOTAL-FORCE (eV/Angst)
 -----------------------------------------------------------------------------------
      0.04407      3.64532      1.63180         0.000394      0.001775      0.000440
      2.50816      1.80523      1.64314         0.001478      0.000877     -0.000754
      2.50928      1.80629      4.74148         0.001592      0.000743      0.000877
      0.04466      3.64589      4.75205        -0.000794      0.001532     -0.000767
      0.05525      0.93479      3.19324         0.000731      0.001203     -0.000062
      2.55497      4.46283      0.02462        -0.000273      0.001052      0.001922
      0.10798      3.65117      7.71866         0.002092     -0.001473      0.000410
      2.43384      1.77704      7.87741        -0.001135     -0.001727      0.000231
      2.43380      1.77912     11.03424         0.000368     -0.001498     -0.000436
      0.10733      3.65298     11.19138         0.001375     -0.001992     -0.000137
      0.08677      0.54542      9.45652        -0.000045      0.000720      0.000528
      2.55655      4.46411      6.35706        -0.000371      0.001318     -0.001402
      4.11952      2.56462      9.45470         0.006045      0.004693     -0.000605
      4.91920      0.91523      0.05751         0.000315     -0.000110     -0.002266
      2.47763      4.52023      3.19165         0.004450      0.003312      0.000771
      4.92037      0.91637      6.32731         0.002565     -0.001438      0.000999
      2.45757      4.52461      9.45436         0.001550     -0.002838      0.000162
      0.54416      1.78663      1.45946        -0.000430     -0.000754      0.003156
      3.19429      0.89472      0.07961         0.001250      0.000267      0.002621
      0.54513      1.78761      4.92635        -0.001267     -0.000510     -0.003188
      3.02037      3.68027      1.77121        -0.003822      0.000435      0.000146
      3.02164      3.68097      4.61200        -0.001981     -0.001159     -0.000179
      3.02137      0.73518      3.19303        -0.003395      0.002904      0.000382
      0.58014      4.72663      0.11159        -0.004355      0.000683      0.002793
      0.74500      4.52391      3.19238        -0.001129      0.001845     -0.000939
      0.48665      1.69305      7.81574        -0.002523      0.001683      0.002893
      3.19545      0.89540      6.30540         0.000660     -0.000786     -0.003230
      0.48647      1.69440     11.09706        -0.002290      0.000254     -0.002172
      3.09638      3.58846      8.01023         0.001805     -0.004403     -0.002011
      3.09656      3.59040     10.89933         0.000482     -0.003982      0.001594
      3.07514      0.80357      9.45629         0.002960      0.002189     -0.000097
      0.58205      4.72798      6.27033        -0.005220      0.002229     -0.002728
      0.67221      4.22301      9.45506        -0.001082     -0.007047      0.001048
 -----------------------------------------------------------------------------------
    total drift:                               -0.000576      0.036114      0.013330


--------------------------------------------------------------------------------------------------------



  FREE ENERGIE OF THE ION-ELECTRON SYSTEM (eV)
  ---------------------------------------------------
  free  energy   TOTEN  =      -208.56337618 eV

  energy  without entropy=     -208.56337618  energy(sigma->0) =     -208.56337618
 


--------------------------------------------------------------------------------------------------------


    POTLOK:  cpu time    0.0184: real time    0.0185


--------------------------------------------------------------------------------------------------------


 stress matrix after NEB project (eV)
      0.02268     -0.00004      0.00104
     -0.00004      0.00177      0.00140
      0.00104      0.00140      0.02312
  FORCES: max atom, RMS     0.007677    0.003713
  FORCE total and by dimension    0.021328    0.007047
  Stress total and by dimension    0.032529    0.023119


--------------------------------------------------------------------------------------------------------


  
 reached required accuracy - stopping structural energy minimisation
     LOOP+:  cpu time   54.8224: real time   55.5862
    4ORBIT:  cpu time    0.0000: real time    0.0000

 total amount of memory used by VASP on root node    51925. kBytes
========================================================================

   base      :      30000. kBytes
   nonlr-proj:       3050. kBytes
   fftplans  :        763. kBytes
   grid      :       1950. kBytes
   one-center:        155. kBytes
   wavefun   :      16007. kBytes
 
  
  
 General timing and accounting informations for this job:
 ========================================================
  
                  Total CPU time used (sec):       62.068
                            User time (sec):       59.926
                          System time (sec):        2.142
                         Elapsed time (sec):       65.584
  
                   Maximum memory used (kb):      495208.
                   Average memory used (kb):           0.
  
                          Minor page faults:        90370
                          Major page faults:          101
                 Voluntary context switches:         5623
