 running on   64 total cores
 distrk:  each k-point on   64 cores,    1 groups
 distr:  one band on    8 cores,    8 groups
 using from now: INCAR     
 vasp.5.4.1 05Feb16 (build Apr 23 2022 14:15:44) complex                        
  
 POSCAR found type information on POSCAR  Li V  O 
 POSCAR found :  3 types and      33 ions
 scaLAPACK will be used
 LDA part: xc-table for Pade appr. of Perdew
 POSCAR found type information on POSCAR  Li V  O 
 POSCAR found :  3 types and      33 ions
 POSCAR, INCAR and KPOINTS ok, starting setup
 WARNING: small aliasing (wrap around) errors must be expected
 FFT: planning ...
 WAVECAR not read
 WARNING: random wavefunctions but no delay for mixing, default for NELMDL
 entering main loop
       N       E                     dE             d eps       ncg     rms          rms(c)
RMM:   1     0.171935485788E+04    0.17194E+04   -0.46100E+04  5408   0.118E+03
RMM:   2     0.502935947779E+03   -0.12164E+04   -0.11505E+04  5408   0.295E+02
RMM:   3     0.127515933764E+03   -0.37542E+03   -0.33426E+03  5408   0.166E+02
RMM:   4    -0.591212336256E+02   -0.18664E+03   -0.11146E+03  5408   0.214E+02
RMM:   5    -0.158007009024E+03   -0.98886E+02   -0.70577E+02  5408   0.110E+02
RMM:   6    -0.202607310633E+03   -0.44600E+02   -0.29217E+02  5408   0.921E+01
RMM:   7    -0.227080020407E+03   -0.24473E+02   -0.17934E+02  5408   0.534E+01
RMM:   8    -0.238371441697E+03   -0.11291E+02   -0.79026E+01  5408   0.490E+01
RMM:   9    -0.251675595351E+03   -0.13304E+02   -0.11775E+02 14198   0.265E+01
RMM:  10    -0.251988489828E+03   -0.31289E+00   -0.24766E+00 14199   0.381E+00
RMM:  11    -0.252007619888E+03   -0.19130E-01   -0.12353E-01 14148   0.637E-01
RMM:  12    -0.252010560507E+03   -0.29406E-02   -0.23353E-02 12886   0.135E-01    0.952E+01
RMM:  13    -0.194219585786E+03    0.57791E+02   -0.39063E+02 12121   0.686E+01    0.752E+01
RMM:  14    -0.202813800197E+03   -0.85942E+01   -0.64169E+01 13629   0.248E+01    0.420E+01
RMM:  15    -0.200108177709E+03    0.27056E+01   -0.16489E+01 12543   0.138E+01    0.205E+01
RMM:  16    -0.199921982473E+03    0.18620E+00   -0.60333E+00 12900   0.825E+00    0.169E+01
RMM:  17    -0.200673104944E+03   -0.75112E+00   -0.13961E+00 12914   0.391E+00    0.111E+01
RMM:  18    -0.200870030731E+03   -0.19693E+00   -0.78094E-01 12675   0.306E+00    0.924E+00
RMM:  19    -0.200965789986E+03   -0.95759E-01   -0.20418E-01 13768   0.133E+00    0.724E+00
RMM:  20    -0.201651977137E+03   -0.68619E+00   -0.60359E-01 12559   0.275E+00    0.470E+00
RMM:  21    -0.201646954916E+03    0.50222E-02   -0.31342E-01 13316   0.186E+00    0.358E+00
RMM:  22    -0.201723468693E+03   -0.76514E-01   -0.60810E-02 13468   0.710E-01    0.212E+00
RMM:  23    -0.201760943527E+03   -0.37475E-01   -0.36396E-02 12889   0.688E-01    0.762E-01
RMM:  24    -0.201766676635E+03   -0.57331E-02   -0.17640E-02 13279   0.419E-01    0.353E-01
RMM:  25    -0.201766299105E+03    0.37753E-03   -0.25405E-03 13055   0.169E-01    0.180E-01
RMM:  26    -0.201766076662E+03    0.22244E-03   -0.93672E-04 13607   0.913E-02    0.759E-02
RMM:  27    -0.201765937565E+03    0.13910E-03   -0.25624E-04 13278   0.470E-02    0.383E-02
RMM:  28    -0.201765909471E+03    0.28094E-04   -0.60729E-05 13208   0.214E-02    0.295E-02
RMM:  29    -0.201765904369E+03    0.51018E-05   -0.15711E-05 12079   0.131E-02    0.158E-02
RMM:  30    -0.201765901466E+03    0.29032E-05   -0.70657E-06 10150   0.980E-03    0.135E-02
RMM:  31    -0.201765901692E+03   -0.22532E-06   -0.37311E-06  9183   0.594E-03
   1 F= -.20856338E+03 E0= -.20856338E+03  d E =-.208563E+03  mag=     0.9992
 curvature:   0.00 expect dE= 0.000E+00 dE for cont linesearch  0.000E+00
 trial: gam= 0.00000 g(F)=  0.219E-04 g(S)=  0.155E-05 ort = 0.000E+00 (trialstep = 0.100E+01)
 search vector abs. value=  0.235E-04
 reached required accuracy - stopping structural energy minimisation
