  14  14   0   0
  0.1002079E+02  0.5496982E-09  0.5019586E-09  0.5742569E-09  0.5000000E-15
  1.000000000000000E-004
  CAR 
 unknown system                          
     19.58235382    -16.57556460  301      5.78732077      1.00000000
    -16.576  0.0000E+00  0.0000E+00  0.0000E+00  0.0000E+00
    -16.455  0.0000E+00  0.0000E+00  0.0000E+00  0.0000E+00
    -16.335  0.0000E+00  0.0000E+00  0.0000E+00  0.0000E+00
    -16.214  0.0000E+00  0.0000E+00  0.0000E+00  0.0000E+00
    -16.093  0.0000E+00  0.0000E+00  0.0000E+00  0.0000E+00
    -15.973  0.0000E+00  0.0000E+00  0.0000E+00  0.0000E+00
    -15.852  0.0000E+00  0.0000E+00  0.0000E+00  0.0000E+00
    -15.732  0.0000E+00  0.0000E+00  0.0000E+00  0.0000E+00
    -15.611  0.0000E+00  0.0000E+00  0.0000E+00  0.0000E+00
    -15.491  0.0000E+00  0.0000E+00  0.0000E+00  0.0000E+00
    -15.370  0.0000E+00  0.0000E+00  0.0000E+00  0.0000E+00
    -15.250  0.0000E+00  0.0000E+00  0.0000E+00  0.0000E+00
    -15.129  0.0000E+00  0.0000E+00  0.0000E+00  0.0000E+00
    -15.009  0.7249E-08  0.2383E-08  0.8736E-09  0.2872E-09
    -14.888  0.1871E-03  0.1471E-03  0.2256E-04  0.1773E-04
    -14.768  0.1181E-02  0.1142E-02  0.1649E-03  0.1554E-03
    -14.647  0.2562E-02  0.2535E-02  0.4737E-03  0.4609E-03
    -14.527  0.4739E-02  0.4519E-02  0.1045E-02  0.1006E-02
    -14.406  0.7423E-02  0.7404E-02  0.1939E-02  0.1898E-02
    -14.286  0.9883E-02  0.9328E-02  0.3131E-02  0.3022E-02
    -14.165  0.2072E-01  0.2078E-01  0.5628E-02  0.5526E-02
    -14.045  0.1784E-01  0.1821E-01  0.7778E-02  0.7721E-02
    -13.924  0.1843E-02  0.2312E-02  0.8000E-02  0.8000E-02
    -13.803  0.8258E-06  0.4324E-06  0.8000E-02  0.8000E-02
    -13.683  0.2509E-02  0.2153E-02  0.8302E-02  0.8259E-02
    -13.562  0.2036E-01  0.1964E-01  0.1076E-01  0.1063E-01
    -13.442  0.2189E-01  0.2230E-01  0.1339E-01  0.1331E-01
    -13.321  0.1671E-01  0.1709E-01  0.1541E-01  0.1537E-01
    -13.201  0.4769E-02  0.5044E-02  0.1598E-01  0.1598E-01
    -13.080  0.1386E-03  0.1500E-03  0.1600E-01  0.1600E-01
    -12.960  0.7035E-11  0.9910E-11  0.1600E-01  0.1600E-01
    -12.839  0.0000E+00  0.0000E+00  0.1600E-01  0.1600E-01
    -12.719  0.0000E+00  0.0000E+00  0.1600E-01  0.1600E-01
    -12.598  0.0000E+00  0.0000E+00  0.1600E-01  0.1600E-01
    -12.478  0.0000E+00  0.0000E+00  0.1600E-01  0.1600E-01
    -12.357  0.0000E+00  0.0000E+00  0.1600E-01  0.1600E-01
    -12.237  0.0000E+00  0.0000E+00  0.1600E-01  0.1600E-01
    -12.116  0.0000E+00  0.0000E+00  0.1600E-01  0.1600E-01
    -11.996  0.0000E+00  0.0000E+00  0.1600E-01  0.1600E-01
    -11.875  0.0000E+00  0.0000E+00  0.1600E-01  0.1600E-01
    -11.755  0.0000E+00  0.0000E+00  0.1600E-01  0.1600E-01
    -11.634  0.0000E+00  0.0000E+00  0.1600E-01  0.1600E-01
    -11.513  0.0000E+00  0.0000E+00  0.1600E-01  0.1600E-01
    -11.393  0.0000E+00  0.0000E+00  0.1600E-01  0.1600E-01
    -11.272  0.0000E+00  0.0000E+00  0.1600E-01  0.1600E-01
    -11.152  0.0000E+00  0.0000E+00  0.1600E-01  0.1600E-01
    -11.031  0.0000E+00  0.0000E+00  0.1600E-01  0.1600E-01
    -10.911  0.0000E+00  0.0000E+00  0.1600E-01  0.1600E-01
    -10.790  0.0000E+00  0.0000E+00  0.1600E-01  0.1600E-01
    -10.670  0.0000E+00  0.0000E+00  0.1600E-01  0.1600E-01
    -10.549  0.0000E+00  0.0000E+00  0.1600E-01  0.1600E-01
    -10.429  0.0000E+00  0.0000E+00  0.1600E-01  0.1600E-01
    -10.308  0.0000E+00  0.0000E+00  0.1600E-01  0.1600E-01
    -10.188  0.0000E+00  0.0000E+00  0.1600E-01  0.1600E-01
    -10.067  0.0000E+00  0.0000E+00  0.1600E-01  0.1600E-01
     -9.947  0.0000E+00  0.0000E+00  0.1600E-01  0.1600E-01
     -9.826  0.0000E+00  0.0000E+00  0.1600E-01  0.1600E-01
     -9.706  0.0000E+00  0.0000E+00  0.1600E-01  0.1600E-01
     -9.585  0.0000E+00  0.0000E+00  0.1600E-01  0.1600E-01
     -9.465  0.0000E+00  0.0000E+00  0.1600E-01  0.1600E-01
     -9.344  0.0000E+00  0.0000E+00  0.1600E-01  0.1600E-01
     -9.223  0.0000E+00  0.0000E+00  0.1600E-01  0.1600E-01
     -9.103  0.0000E+00  0.0000E+00  0.1600E-01  0.1600E-01
     -8.982  0.0000E+00  0.0000E+00  0.1600E-01  0.1600E-01
     -8.862  0.0000E+00  0.0000E+00  0.1600E-01  0.1600E-01
     -8.741  0.0000E+00  0.0000E+00  0.1600E-01  0.1600E-01
     -8.621  0.0000E+00  0.0000E+00  0.1600E-01  0.1600E-01
     -8.500  0.0000E+00  0.0000E+00  0.1600E-01  0.1600E-01
     -8.380  0.0000E+00  0.0000E+00  0.1600E-01  0.1600E-01
     -8.259  0.0000E+00  0.0000E+00  0.1600E-01  0.1600E-01
     -8.139  0.0000E+00  0.0000E+00  0.1600E-01  0.1600E-01
     -8.018  0.0000E+00  0.0000E+00  0.1600E-01  0.1600E-01
     -7.898  0.0000E+00  0.0000E+00  0.1600E-01  0.1600E-01
     -7.777  0.0000E+00  0.0000E+00  0.1600E-01  0.1600E-01
     -7.657  0.0000E+00  0.0000E+00  0.1600E-01  0.1600E-01
     -7.536  0.0000E+00  0.0000E+00  0.1600E-01  0.1600E-01
     -7.416  0.0000E+00  0.0000E+00  0.1600E-01  0.1600E-01
     -7.295  0.0000E+00  0.0000E+00  0.1600E-01  0.1600E-01
     -7.175  0.0000E+00  0.0000E+00  0.1600E-01  0.1600E-01
     -7.054  0.0000E+00  0.0000E+00  0.1600E-01  0.1600E-01
     -6.933  0.0000E+00  0.0000E+00  0.1600E-01  0.1600E-01
     -6.813  0.0000E+00  0.0000E+00  0.1600E-01  0.1600E-01
     -6.692  0.0000E+00  0.0000E+00  0.1600E-01  0.1600E-01
     -6.572  0.0000E+00  0.0000E+00  0.1600E-01  0.1600E-01
     -6.451  0.0000E+00  0.0000E+00  0.1600E-01  0.1600E-01
     -6.331  0.0000E+00  0.0000E+00  0.1600E-01  0.1600E-01
     -6.210  0.0000E+00  0.0000E+00  0.1600E-01  0.1600E-01
     -6.090  0.0000E+00  0.0000E+00  0.1600E-01  0.1600E-01
     -5.969  0.0000E+00  0.0000E+00  0.1600E-01  0.1600E-01
     -5.849  0.0000E+00  0.0000E+00  0.1600E-01  0.1600E-01
     -5.728  0.0000E+00  0.0000E+00  0.1600E-01  0.1600E-01
     -5.608  0.0000E+00  0.0000E+00  0.1600E-01  0.1600E-01
     -5.487  0.0000E+00  0.0000E+00  0.1600E-01  0.1600E-01
     -5.367  0.0000E+00  0.0000E+00  0.1600E-01  0.1600E-01
     -5.246  0.0000E+00  0.0000E+00  0.1600E-01  0.1600E-01
     -5.126  0.0000E+00  0.0000E+00  0.1600E-01  0.1600E-01
     -5.005  0.0000E+00  0.0000E+00  0.1600E-01  0.1600E-01
     -4.885  0.0000E+00  0.0000E+00  0.1600E-01  0.1600E-01
     -4.764  0.0000E+00  0.0000E+00  0.1600E-01  0.1600E-01
     -4.643  0.0000E+00  0.0000E+00  0.1600E-01  0.1600E-01
     -4.523  0.0000E+00  0.0000E+00  0.1600E-01  0.1600E-01
     -4.402  0.0000E+00  0.0000E+00  0.1600E-01  0.1600E-01
     -4.282  0.0000E+00  0.0000E+00  0.1600E-01  0.1600E-01
     -4.161  0.0000E+00  0.0000E+00  0.1600E-01  0.1600E-01
     -4.041  0.0000E+00  0.0000E+00  0.1600E-01  0.1600E-01
     -3.920  0.0000E+00  0.0000E+00  0.1600E-01  0.1600E-01
     -3.800  0.0000E+00  0.0000E+00  0.1600E-01  0.1600E-01
     -3.679  0.0000E+00  0.0000E+00  0.1600E-01  0.1600E-01
     -3.559  0.0000E+00  0.0000E+00  0.1600E-01  0.1600E-01
     -3.438  0.0000E+00  0.0000E+00  0.1600E-01  0.1600E-01
     -3.318  0.0000E+00  0.0000E+00  0.1600E-01  0.1600E-01
     -3.197  0.0000E+00  0.0000E+00  0.1600E-01  0.1600E-01
     -3.077  0.0000E+00  0.0000E+00  0.1600E-01  0.1600E-01
     -2.956  0.0000E+00  0.0000E+00  0.1600E-01  0.1600E-01
     -2.836  0.0000E+00  0.0000E+00  0.1600E-01  0.1600E-01
     -2.715  0.1057E-10  0.1868E-11  0.1600E-01  0.1600E-01
     -2.595  0.1883E-03  0.1448E-03  0.1602E-01  0.1602E-01
     -2.474  0.2486E-02  0.2309E-02  0.1632E-01  0.1630E-01
     -2.353  0.7403E-02  0.6689E-02  0.1721E-01  0.1710E-01
     -2.233  0.1531E-01  0.1508E-01  0.1906E-01  0.1892E-01
     -2.112  0.1372E-01  0.1413E-01  0.2071E-01  0.2062E-01
     -1.992  0.8874E-02  0.9152E-02  0.2178E-01  0.2173E-01
     -1.871  0.1033E-01  0.9888E-02  0.2303E-01  0.2292E-01
     -1.751  0.1032E-01  0.1040E-01  0.2427E-01  0.2417E-01
     -1.630  0.8764E-02  0.8863E-02  0.2533E-01  0.2524E-01
     -1.510  0.9831E-02  0.9952E-02  0.2651E-01  0.2644E-01
     -1.389  0.8726E-02  0.8568E-02  0.2757E-01  0.2747E-01
     -1.269  0.8601E-02  0.8603E-02  0.2860E-01  0.2851E-01
     -1.148  0.9067E-02  0.9112E-02  0.2969E-01  0.2961E-01
     -1.028  0.8670E-02  0.8536E-02  0.3074E-01  0.3064E-01
     -0.907  0.8992E-02  0.9217E-02  0.3182E-01  0.3175E-01
     -0.787  0.7621E-02  0.7506E-02  0.3274E-01  0.3265E-01
     -0.666  0.7584E-02  0.7754E-02  0.3366E-01  0.3359E-01
     -0.546  0.8755E-02  0.8597E-02  0.3471E-01  0.3462E-01
     -0.425  0.9318E-02  0.9238E-02  0.3583E-01  0.3573E-01
     -0.305  0.8668E-02  0.8752E-02  0.3688E-01  0.3679E-01
     -0.184  0.8058E-02  0.8071E-02  0.3785E-01  0.3776E-01
     -0.063  0.9100E-02  0.9011E-02  0.3895E-01  0.3885E-01
      0.057  0.1046E-01  0.1056E-01  0.4021E-01  0.4012E-01
      0.178  0.7613E-02  0.7559E-02  0.4112E-01  0.4103E-01
      0.298  0.8389E-02  0.8344E-02  0.4214E-01  0.4204E-01
      0.419  0.1081E-01  0.1089E-01  0.4344E-01  0.4335E-01
      0.539  0.1152E-01  0.1138E-01  0.4483E-01  0.4472E-01
      0.660  0.1237E-01  0.1240E-01  0.4632E-01  0.4622E-01
      0.780  0.1083E-01  0.1085E-01  0.4762E-01  0.4752E-01
      0.901  0.1149E-01  0.1140E-01  0.4901E-01  0.4890E-01
      1.021  0.1268E-01  0.1253E-01  0.5054E-01  0.5041E-01
      1.142  0.9910E-02  0.1024E-01  0.5173E-01  0.5164E-01
      1.262  0.9671E-02  0.9463E-02  0.5289E-01  0.5278E-01
      1.383  0.9124E-02  0.9480E-02  0.5399E-01  0.5393E-01
      1.503  0.9740E-02  0.9258E-02  0.5517E-01  0.5504E-01
      1.624  0.1057E-01  0.1065E-01  0.5644E-01  0.5633E-01
      1.744  0.1253E-01  0.1249E-01  0.5795E-01  0.5783E-01
      1.865  0.1227E-01  0.1242E-01  0.5943E-01  0.5933E-01
      1.986  0.9608E-02  0.9778E-02  0.6059E-01  0.6051E-01
      2.106  0.9684E-02  0.9756E-02  0.6176E-01  0.6168E-01
      2.227  0.6799E-02  0.7057E-02  0.6258E-01  0.6253E-01
      2.347  0.5676E-02  0.5702E-02  0.6326E-01  0.6322E-01
      2.468  0.4273E-02  0.4335E-02  0.6378E-01  0.6374E-01
      2.588  0.1691E-02  0.1950E-02  0.6398E-01  0.6398E-01
      2.709  0.1697E-03  0.1789E-03  0.6400E-01  0.6400E-01
      2.829  0.4258E-05  0.4695E-05  0.6400E-01  0.6400E-01
      2.950  0.3183E-08  0.8321E-10  0.6400E-01  0.6400E-01
      3.070  0.4773E-04  0.4122E-04  0.6401E-01  0.6400E-01
      3.191  0.5366E-03  0.4286E-03  0.6407E-01  0.6406E-01
      3.311  0.1904E-02  0.1772E-02  0.6430E-01  0.6427E-01
      3.432  0.2270E-02  0.1909E-02  0.6457E-01  0.6450E-01
      3.552  0.4099E-02  0.4276E-02  0.6507E-01  0.6502E-01
      3.673  0.5077E-02  0.4589E-02  0.6568E-01  0.6557E-01
      3.793  0.6161E-02  0.6472E-02  0.6642E-01  0.6635E-01
      3.914  0.7141E-02  0.6554E-02  0.6728E-01  0.6714E-01
      4.034  0.5360E-02  0.5271E-02  0.6793E-01  0.6777E-01
      4.155  0.2156E-02  0.3111E-02  0.6819E-01  0.6815E-01
      4.276  0.1247E-02  0.1026E-02  0.6834E-01  0.6827E-01
      4.396  0.4370E-02  0.3464E-02  0.6887E-01  0.6869E-01
      4.517  0.5436E-02  0.5078E-02  0.6952E-01  0.6930E-01
      4.637  0.6096E-02  0.5964E-02  0.7026E-01  0.7002E-01
      4.758  0.7939E-02  0.8332E-02  0.7121E-01  0.7103E-01
      4.878  0.3233E-02  0.3979E-02  0.7160E-01  0.7150E-01
      4.999  0.2368E-02  0.2534E-02  0.7189E-01  0.7181E-01
      5.119  0.2268E-02  0.2273E-02  0.7216E-01  0.7208E-01
      5.240  0.1399E-02  0.1372E-02  0.7233E-01  0.7225E-01
      5.360  0.1898E-02  0.1710E-02  0.7256E-01  0.7246E-01
      5.481  0.2456E-02  0.1960E-02  0.7285E-01  0.7269E-01
      5.601  0.2918E-02  0.2858E-02  0.7321E-01  0.7304E-01
      5.722  0.4294E-02  0.3170E-02  0.7372E-01  0.7342E-01
      5.842  0.6783E-02  0.6025E-02  0.7454E-01  0.7414E-01
      5.963  0.6614E-02  0.6255E-02  0.7534E-01  0.7490E-01
      6.083  0.5878E-02  0.6788E-02  0.7605E-01  0.7572E-01
      6.204  0.6358E-02  0.5992E-02  0.7681E-01  0.7644E-01
      6.324  0.6217E-02  0.7052E-02  0.7756E-01  0.7729E-01
      6.445  0.7518E-02  0.7213E-02  0.7847E-01  0.7816E-01
      6.566  0.9188E-02  0.8935E-02  0.7958E-01  0.7924E-01
      6.686  0.9655E-02  0.9547E-02  0.8074E-01  0.8039E-01
      6.807  0.7886E-02  0.7758E-02  0.8169E-01  0.8132E-01
      6.927  0.8507E-02  0.9017E-02  0.8272E-01  0.8241E-01
      7.048  0.4529E-02  0.5933E-02  0.8326E-01  0.8312E-01
      7.168  0.3312E-02  0.3273E-02  0.8366E-01  0.8352E-01
      7.289  0.4933E-02  0.4582E-02  0.8425E-01  0.8407E-01
      7.409  0.4529E-02  0.4643E-02  0.8480E-01  0.8463E-01
      7.530  0.3966E-02  0.4399E-02  0.8528E-01  0.8516E-01
      7.650  0.3420E-02  0.3852E-02  0.8569E-01  0.8562E-01
      7.771  0.3678E-02  0.3286E-02  0.8613E-01  0.8602E-01
      7.891  0.4153E-02  0.4309E-02  0.8663E-01  0.8654E-01
      8.012  0.4426E-02  0.4568E-02  0.8717E-01  0.8709E-01
      8.132  0.5318E-02  0.5162E-02  0.8781E-01  0.8771E-01
      8.253  0.5961E-02  0.5702E-02  0.8853E-01  0.8840E-01
      8.373  0.6081E-02  0.6078E-02  0.8926E-01  0.8913E-01
      8.494  0.8063E-02  0.7870E-02  0.9023E-01  0.9008E-01
      8.614  0.6334E-02  0.6428E-02  0.9100E-01  0.9085E-01
      8.735  0.7705E-02  0.7308E-02  0.9192E-01  0.9174E-01
      8.856  0.6613E-02  0.7264E-02  0.9272E-01  0.9261E-01
      8.976  0.4714E-02  0.4942E-02  0.9329E-01  0.9321E-01
      9.097  0.5847E-02  0.5380E-02  0.9399E-01  0.9386E-01
      9.217  0.7454E-02  0.7689E-02  0.9489E-01  0.9478E-01
      9.338  0.6607E-02  0.6764E-02  0.9569E-01  0.9560E-01
      9.458  0.5853E-02  0.5139E-02  0.9639E-01  0.9622E-01
      9.579  0.6369E-02  0.6968E-02  0.9716E-01  0.9706E-01
      9.699  0.5787E-02  0.5405E-02  0.9786E-01  0.9771E-01
      9.820  0.4524E-02  0.4828E-02  0.9841E-01  0.9829E-01
      9.940  0.5244E-02  0.5446E-02  0.9904E-01  0.9895E-01
     10.061  0.3557E-02  0.3834E-02  0.9947E-01  0.9941E-01
     10.181  0.3006E-02  0.3051E-02  0.9983E-01  0.9978E-01
     10.302  0.2862E-02  0.2781E-02  0.1002E+00  0.1001E+00
     10.422  0.4153E-02  0.4205E-02  0.1007E+00  0.1006E+00
     10.543  0.3258E-02  0.3457E-02  0.1011E+00  0.1010E+00
     10.663  0.3625E-02  0.3359E-02  0.1015E+00  0.1014E+00
     10.784  0.3031E-02  0.3136E-02  0.1019E+00  0.1018E+00
     10.904  0.3286E-02  0.3291E-02  0.1023E+00  0.1022E+00
     11.025  0.4673E-02  0.4446E-02  0.1028E+00  0.1027E+00
     11.146  0.4506E-02  0.4578E-02  0.1034E+00  0.1033E+00
     11.266  0.4509E-02  0.4660E-02  0.1039E+00  0.1039E+00
     11.387  0.2826E-02  0.2854E-02  0.1043E+00  0.1042E+00
     11.507  0.1447E-02  0.1806E-02  0.1044E+00  0.1044E+00
     11.628  0.8510E-03  0.7554E-03  0.1045E+00  0.1045E+00
     11.748  0.1358E-02  0.1361E-02  0.1047E+00  0.1047E+00
     11.869  0.9918E-03  0.9755E-03  0.1048E+00  0.1048E+00
     11.989  0.1010E-02  0.1123E-02  0.1049E+00  0.1049E+00
     12.110  0.2467E-03  0.1805E-03  0.1050E+00  0.1050E+00
     12.230  0.9851E-03  0.9753E-03  0.1051E+00  0.1051E+00
     12.351  0.1419E-02  0.1370E-02  0.1053E+00  0.1052E+00
     12.471  0.1281E-02  0.1289E-02  0.1054E+00  0.1054E+00
     12.592  0.9599E-03  0.9691E-03  0.1055E+00  0.1055E+00
     12.712  0.1355E-02  0.1246E-02  0.1057E+00  0.1057E+00
     12.833  0.1595E-02  0.1656E-02  0.1059E+00  0.1059E+00
     12.953  0.2003E-02  0.1983E-02  0.1061E+00  0.1061E+00
     13.074  0.3038E-02  0.2832E-02  0.1065E+00  0.1064E+00
     13.194  0.3656E-02  0.3701E-02  0.1069E+00  0.1069E+00
     13.315  0.3693E-02  0.3775E-02  0.1074E+00  0.1073E+00
     13.436  0.3122E-02  0.2957E-02  0.1078E+00  0.1077E+00
     13.556  0.4053E-02  0.4371E-02  0.1082E+00  0.1082E+00
     13.677  0.2735E-02  0.2638E-02  0.1086E+00  0.1085E+00
     13.797  0.3381E-02  0.3229E-02  0.1090E+00  0.1089E+00
     13.918  0.3086E-02  0.3236E-02  0.1093E+00  0.1093E+00
     14.038  0.2487E-02  0.2177E-02  0.1096E+00  0.1096E+00
     14.159  0.3083E-02  0.3030E-02  0.1100E+00  0.1099E+00
     14.279  0.2538E-02  0.2326E-02  0.1103E+00  0.1102E+00
     14.400  0.2669E-02  0.3060E-02  0.1106E+00  0.1106E+00
     14.520  0.2564E-02  0.2773E-02  0.1110E+00  0.1109E+00
     14.641  0.2202E-02  0.2198E-02  0.1112E+00  0.1112E+00
     14.761  0.1453E-02  0.1283E-02  0.1114E+00  0.1114E+00
     14.882  0.1309E-02  0.1982E-02  0.1116E+00  0.1116E+00
     15.002  0.1127E-02  0.1016E-02  0.1117E+00  0.1117E+00
     15.123  0.5763E-03  0.3635E-03  0.1118E+00  0.1118E+00
     15.243  0.5662E-03  0.5623E-03  0.1118E+00  0.1118E+00
     15.364  0.4381E-03  0.2915E-03  0.1119E+00  0.1119E+00
     15.484  0.8083E-04  0.3838E-03  0.1119E+00  0.1119E+00
     15.605  0.2102E-03  0.1019E-03  0.1119E+00  0.1119E+00
     15.726  0.1612E-04  0.9693E-04  0.1119E+00  0.1119E+00
     15.846  0.2200E-04  0.1086E-03  0.1119E+00  0.1119E+00
     15.967  0.2589E-03  0.1814E-03  0.1120E+00  0.1120E+00
     16.087  0.9347E-05  0.3753E-08  0.1120E+00  0.1120E+00
     16.208  0.1526E-16  0.0000E+00  0.1120E+00  0.1120E+00
     16.328  0.5238E-05  0.0000E+00  0.1120E+00  0.1120E+00
     16.449  0.9152E-04  0.0000E+00  0.1120E+00  0.1120E+00
     16.569  0.1236E-04  0.0000E+00  0.1120E+00  0.1120E+00
     16.690  0.1811E-03  0.0000E+00  0.1120E+00  0.1120E+00
     16.810  0.2108E-07  0.0000E+00  0.1120E+00  0.1120E+00
     16.931  0.0000E+00  0.0000E+00  0.1120E+00  0.1120E+00
     17.051  0.0000E+00  0.2025E-10  0.1120E+00  0.1120E+00
     17.172  0.0000E+00  0.7091E-04  0.1120E+00  0.1120E+00
     17.292  0.0000E+00  0.3274E-04  0.1120E+00  0.1120E+00
     17.413  0.0000E+00  0.8987E-04  0.1120E+00  0.1120E+00
     17.533  0.0000E+00  0.1209E-08  0.1120E+00  0.1120E+00
     17.654  0.0000E+00  0.0000E+00  0.1120E+00  0.1120E+00
     17.774  0.4512E-18  0.7427E-13  0.1120E+00  0.1120E+00
     17.895  0.1878E-05  0.3481E-04  0.1120E+00  0.1120E+00
     18.016  0.9486E-04  0.6194E-04  0.1120E+00  0.1120E+00
     18.136  0.1450E-07  0.4946E-11  0.1120E+00  0.1120E+00
     18.257  0.0000E+00  0.0000E+00  0.1120E+00  0.1120E+00
     18.377  0.0000E+00  0.0000E+00  0.1120E+00  0.1120E+00
     18.498  0.0000E+00  0.0000E+00  0.1120E+00  0.1120E+00
     18.618  0.0000E+00  0.0000E+00  0.1120E+00  0.1120E+00
     18.739  0.0000E+00  0.0000E+00  0.1120E+00  0.1120E+00
     18.859  0.0000E+00  0.0000E+00  0.1120E+00  0.1120E+00
     18.980  0.0000E+00  0.0000E+00  0.1120E+00  0.1120E+00
     19.100  0.0000E+00  0.0000E+00  0.1120E+00  0.1120E+00
     19.221  0.0000E+00  0.0000E+00  0.1120E+00  0.1120E+00
     19.341  0.0000E+00  0.0000E+00  0.1120E+00  0.1120E+00
     19.462  0.0000E+00  0.0000E+00  0.1120E+00  0.1120E+00
     19.582  0.0000E+00  0.0000E+00  0.1120E+00  0.1120E+00
