 running on   64 total cores
 distrk:  each k-point on   64 cores,    1 groups
 distr:  one band on    8 cores,    8 groups
 using from now: INCAR     
 vasp.5.4.1 05Feb16 (build Apr 23 2022 14:15:44) complex                        
  
 POSCAR found type information on POSCAR  Mo O  Li
 POSCAR found :  3 types and      14 ions
 scaLAPACK will be used
 LDA part: xc-table for Pade appr. of Perdew
 POSCAR found type information on POSCAR  Mo O  Li
 POSCAR found :  3 types and      14 ions
 POSCAR, INCAR and KPOINTS ok, starting setup
 WARNING: small aliasing (wrap around) errors must be expected
 FFT: planning ...
 WAVECAR not read
 WARNING: random wavefunctions but no delay for mixing, default for NELMDL
 entering main loop
       N       E                     dE             d eps       ncg     rms          rms(c)
RMM:   1     0.897517618769E+03    0.89752E+03   -0.29951E+04 19264   0.118E+03
RMM:   2     0.175089604175E+03   -0.72243E+03   -0.72407E+03 19264   0.300E+02
RMM:   3    -0.420608125342E+02   -0.21715E+03   -0.19907E+03 19264   0.146E+02
RMM:   4    -0.106178934627E+03   -0.64118E+02   -0.49184E+02 19264   0.835E+01
RMM:   5    -0.122037082392E+03   -0.15858E+02   -0.12248E+02 19264   0.396E+01
RMM:   6    -0.126146248079E+03   -0.41092E+01   -0.33717E+01 19264   0.201E+01
RMM:   7    -0.127379496055E+03   -0.12332E+01   -0.10623E+01 19264   0.102E+01
RMM:   8    -0.127800010245E+03   -0.42051E+00   -0.37001E+00 19264   0.551E+00
RMM:   9    -0.128062968784E+03   -0.26296E+00   -0.24703E+00 39724   0.298E+00
RMM:  10    -0.128072733611E+03   -0.97648E-02   -0.25220E-01 40346   0.728E-01
RMM:  11    -0.128072871336E+03   -0.13773E-03   -0.12691E-02 40789   0.183E-01
RMM:  12    -0.128072946608E+03   -0.75272E-04   -0.11547E-03 37935   0.437E-02    0.737E+01
RMM:  13    -0.113201037386E+03    0.14872E+02   -0.73233E+01 38528   0.282E+01    0.248E+01
RMM:  14    -0.112219428930E+03    0.98161E+00   -0.49749E+00 38528   0.843E+00    0.172E+01
RMM:  15    -0.112017335787E+03    0.20209E+00   -0.92674E-01 38528   0.336E+00    0.205E+00
RMM:  16    -0.112012799486E+03    0.45363E-02   -0.60554E-02 38528   0.822E-01    0.116E+00
RMM:  17    -0.111994696636E+03    0.18103E-01   -0.15633E-02 38528   0.384E-01    0.569E-01
RMM:  18    -0.111993381400E+03    0.13152E-02   -0.62311E-03 38528   0.268E-01    0.506E-01
RMM:  19    -0.111991793792E+03    0.15876E-02   -0.38980E-03 38528   0.210E-01    0.320E-01
RMM:  20    -0.111991682497E+03    0.11129E-03   -0.13238E-03 38528   0.136E-01    0.654E-02
RMM:  21    -0.111991740840E+03   -0.58343E-04   -0.71929E-05 38528   0.338E-02    0.352E-02
RMM:  22    -0.111991788206E+03   -0.47365E-04   -0.29817E-05 38528   0.215E-02    0.331E-02
RMM:  23    -0.111991801475E+03   -0.13269E-04   -0.19784E-05 38500   0.172E-02    0.148E-02
RMM:  24    -0.111991809445E+03   -0.79708E-05   -0.10822E-05 37758   0.136E-02    0.469E-03
RMM:  25    -0.111991810222E+03   -0.77641E-06   -0.11223E-06 24104   0.423E-03
   1 F= -.11585059E+03 E0= -.11584917E+03  d E =-.115851E+03  mag=     0.2492
 curvature:   0.00 expect dE= 0.000E+00 dE for cont linesearch  0.000E+00
 trial: gam= 0.00000 g(F)=  0.870E-03 g(S)=  0.389E-03 ort = 0.000E+00 (trialstep = 0.100E+01)
 search vector abs. value=  0.126E-02
 bond charge predicted
       N       E                     dE             d eps       ncg     rms          rms(c)
RMM:   1    -0.111988318754E+03    0.34907E-02   -0.24325E-01 38528   0.205E+00    0.329E-01
RMM:   2    -0.111987256389E+03    0.10624E-02   -0.27822E-03 38528   0.201E-01    0.252E-01
RMM:   3    -0.111987103316E+03    0.15307E-03   -0.15902E-04 38528   0.430E-02    0.130E-01
RMM:   4    -0.111987157253E+03   -0.53938E-04   -0.19211E-04 38528   0.433E-02    0.942E-02
RMM:   5    -0.111987025634E+03    0.13162E-03   -0.84237E-05 38528   0.298E-02    0.207E-02
RMM:   6    -0.111987018841E+03    0.67928E-05   -0.34365E-06 29062   0.577E-03    0.109E-02
RMM:   7    -0.111987019251E+03   -0.40944E-06   -0.21436E-06 26718   0.574E-03
   2 F= -.11585103E+03 E0= -.11584963E+03  d E =-.437898E-03  mag=     0.2318
 trial-energy change:   -0.000438  1 .order   -0.000417   -0.001259    0.000425
 step:   0.7611(harm=  0.7476)  dis= 0.00204  next Energy=  -115.851080 (dE=-0.488E-03)
 bond charge predicted
       N       E                     dE             d eps       ncg     rms          rms(c)
RMM:   1    -0.111988397348E+03   -0.13785E-02   -0.13883E-02 38528   0.490E-01    0.784E-02
RMM:   2    -0.111988333887E+03    0.63461E-04   -0.15073E-04 38528   0.468E-02    0.600E-02
RMM:   3    -0.111988324855E+03    0.90320E-05   -0.82999E-06 36183   0.100E-02    0.301E-02
RMM:   4    -0.111988329031E+03   -0.41758E-05   -0.11154E-05 38506   0.107E-02    0.245E-02
RMM:   5    -0.111988319959E+03    0.90715E-05   -0.46881E-06 33704   0.689E-03    0.632E-03
RMM:   6    -0.111988319174E+03    0.78547E-06   -0.31989E-07 21834   0.203E-03
   3 F= -.11585108E+03 E0= -.11584967E+03  d E =-.487390E-03  mag=     0.2301
 curvature:  -0.37 expect dE=-0.144E-03 dE for cont linesearch -0.228E-07
 trial: gam= 0.31401 g(F)=  0.193E-03 g(S)=  0.194E-03 ort =-0.877E-05 (trialstep = 0.952E+00)
 search vector abs. value=  0.505E-03
 bond charge predicted
       N       E                     dE             d eps       ncg     rms          rms(c)
RMM:   1    -0.111992419319E+03   -0.40994E-02   -0.97763E-02 38528   0.129E+00    0.170E-01
RMM:   2    -0.111991995645E+03    0.42367E-03   -0.94759E-04 38528   0.118E-01    0.120E-01
RMM:   3    -0.111991947370E+03    0.48275E-04   -0.56345E-05 38528   0.247E-02    0.521E-02
RMM:   4    -0.111991964261E+03   -0.16892E-04   -0.54984E-05 38528   0.240E-02    0.452E-02
RMM:   5    -0.111991931988E+03    0.32274E-04   -0.17126E-05 38527   0.126E-02    0.111E-02
RMM:   6    -0.111991929569E+03    0.24183E-05   -0.91975E-07 25613   0.295E-03    0.511E-03
RMM:   7    -0.111991928762E+03    0.80753E-06   -0.71871E-07 21877   0.351E-03
   4 F= -.11585121E+03 E0= -.11584979E+03  d E =-.126969E-03  mag=     0.2232
 trial-energy change:   -0.000127  1 .order   -0.000131   -0.000366    0.000103
 step:   0.7335(harm=  0.7427)  dis= 0.00101  next Energy=  -115.851217 (dE=-0.139E-03)
 bond charge predicted
       N       E                     dE             d eps       ncg     rms          rms(c)
RMM:   1    -0.111991164394E+03    0.76518E-03   -0.51506E-03 38528   0.296E-01    0.386E-02
RMM:   2    -0.111991143770E+03    0.20624E-04   -0.50240E-05 38528   0.271E-02    0.274E-02
RMM:   3    -0.111991141237E+03    0.25333E-05   -0.26995E-06 27590   0.554E-03    0.114E-02
RMM:   4    -0.111991142886E+03   -0.16497E-05   -0.29296E-06 28242   0.580E-03    0.119E-02
RMM:   5    -0.111991141008E+03    0.18781E-05   -0.11226E-06 22487   0.382E-03    0.224E-03
RMM:   6    -0.111991140963E+03    0.45778E-07   -0.13076E-07 20341   0.153E-03
   5 F= -.11585122E+03 E0= -.11584980E+03  d E =-.138584E-03  mag=     0.2223
 curvature:  -0.49 expect dE=-0.625E-04 dE for cont linesearch -0.166E-06
 trial: gam= 0.28392 g(F)=  0.886E-04 g(S)=  0.394E-04 ort = 0.131E-04 (trialstep = 0.908E+00)
 search vector abs. value=  0.176E-03
 bond charge predicted
       N       E                     dE             d eps       ncg     rms          rms(c)
RMM:   1    -0.111991180492E+03   -0.39484E-04   -0.31730E-02 38528   0.729E-01    0.469E-02
RMM:   2    -0.111991105528E+03    0.74964E-04   -0.13913E-04 38528   0.454E-02    0.292E-02
RMM:   3    -0.111991099884E+03    0.56440E-05   -0.10225E-05 38423   0.111E-02    0.190E-02
RMM:   4    -0.111991098166E+03    0.17174E-05   -0.56560E-06 35495   0.781E-03    0.127E-02
RMM:   5    -0.111991096513E+03    0.16531E-05   -0.24149E-06 27128   0.563E-03    0.622E-03
RMM:   6    -0.111991096010E+03    0.50295E-06   -0.37514E-07 21655   0.244E-03
   6 F= -.11585129E+03 E0= -.11584987E+03  d E =-.770896E-04  mag=     0.2175
 trial-energy change:   -0.000077  1 .order   -0.000075   -0.000120   -0.000030
 step:   1.2192(harm=  1.2192)  dis= 0.00139  next Energy=  -115.851297 (dE=-0.803E-04)
 bond charge predicted
       N       E                     dE             d eps       ncg     rms          rms(c)
RMM:   1    -0.111991069800E+03    0.26713E-04   -0.37243E-03 38528   0.250E-01    0.163E-02
RMM:   2    -0.111991061387E+03    0.84124E-05   -0.16287E-05 36832   0.156E-02    0.101E-02
RMM:   3    -0.111991061047E+03    0.34044E-06   -0.11633E-06 24603   0.399E-03
   7 F= -.11585130E+03 E0= -.11584988E+03  d E =-.839010E-04  mag=     0.2153
 curvature:  -0.82 expect dE=-0.323E-04 dE for cont linesearch -0.250E-06
 trial: gam= 0.28044 g(F)=  0.371E-04 g(S)=  0.252E-05 ort = 0.736E-05 (trialstep = 0.971E+00)
 search vector abs. value=  0.576E-04
 bond charge predicted
       N       E                     dE             d eps       ncg     rms          rms(c)
RMM:   1    -0.111990830270E+03    0.23112E-03   -0.12676E-02 38528   0.456E-01    0.247E-02
RMM:   2    -0.111990804641E+03    0.25628E-04   -0.56284E-05 38500   0.282E-02    0.206E-02
RMM:   3    -0.111990803885E+03    0.75572E-06   -0.33527E-06 29660   0.552E-03
   8 F= -.11585133E+03 E0= -.11584990E+03  d E =-.294283E-04  mag=     0.2132
 trial-energy change:   -0.000029  1 .order   -0.000027   -0.000040   -0.000013
 step:   1.4261(harm=  1.4261)  dis= 0.00100  next Energy=  -115.851331 (dE=-0.297E-04)
 reached required accuracy - stopping structural energy minimisation
