  33  33   0   0
  0.1020087E+02  0.9867381E-09  0.5450299E-09  0.6259427E-09  0.5000000E-15
  1.000000000000000E-004
  CAR 
 unknown system                          
     15.15746908    -17.68298558  301      3.03386790      1.00000000
    -17.683  0.0000E+00  0.0000E+00  0.0000E+00  0.0000E+00
    -17.574  0.0000E+00  0.0000E+00  0.0000E+00  0.0000E+00
    -17.464  0.0000E+00  0.0000E+00  0.0000E+00  0.0000E+00
    -17.355  0.0000E+00  0.0000E+00  0.0000E+00  0.0000E+00
    -17.245  0.0000E+00  0.0000E+00  0.0000E+00  0.0000E+00
    -17.136  0.0000E+00  0.0000E+00  0.0000E+00  0.0000E+00
    -17.026  0.0000E+00  0.0000E+00  0.0000E+00  0.0000E+00
    -16.917  0.0000E+00  0.0000E+00  0.0000E+00  0.0000E+00
    -16.807  0.0000E+00  0.0000E+00  0.0000E+00  0.0000E+00
    -16.698  0.0000E+00  0.0000E+00  0.0000E+00  0.0000E+00
    -16.588  0.0000E+00  0.0000E+00  0.0000E+00  0.0000E+00
    -16.479  0.0000E+00  0.0000E+00  0.0000E+00  0.0000E+00
    -16.369  0.0000E+00  0.0000E+00  0.0000E+00  0.0000E+00
    -16.260  0.3074E-06  0.3291E-06  0.3365E-07  0.3603E-07
    -16.150  0.2510E-02  0.2539E-02  0.2748E-03  0.2779E-03
    -16.041  0.1308E-01  0.1308E-01  0.1706E-02  0.1710E-02
    -15.931  0.2006E-01  0.2005E-01  0.3902E-02  0.3905E-02
    -15.822  0.1482E-01  0.1481E-01  0.5524E-02  0.5527E-02
    -15.713  0.9148E-02  0.9201E-02  0.6525E-02  0.6534E-02
    -15.603  0.4539E-01  0.4561E-01  0.1149E-01  0.1153E-01
    -15.494  0.5875E-01  0.5865E-01  0.1792E-01  0.1795E-01
    -15.384  0.3542E-01  0.3526E-01  0.2180E-01  0.2181E-01
    -15.275  0.2007E-01  0.2003E-01  0.2400E-01  0.2400E-01
    -15.165  0.9355E-05  0.3754E-04  0.2400E-01  0.2400E-01
    -15.056  0.1511E-01  0.1734E-01  0.2565E-01  0.2590E-01
    -14.946  0.3155E-02  0.9037E-03  0.2600E-01  0.2600E-01
    -14.837  0.1741E-02  0.9113E-02  0.2619E-01  0.2700E-01
    -14.727  0.1660E-01  0.9166E-02  0.2801E-01  0.2800E-01
    -14.618  0.1762E-01  0.1590E-01  0.2994E-01  0.2974E-01
    -14.508  0.1851E-01  0.1834E-01  0.3196E-01  0.3175E-01
    -14.399  0.3431E-03  0.2293E-02  0.3200E-01  0.3200E-01
    -14.289  0.0000E+00  0.5925E-11  0.3200E-01  0.3200E-01
    -14.180  0.0000E+00  0.0000E+00  0.3200E-01  0.3200E-01
    -14.071  0.0000E+00  0.0000E+00  0.3200E-01  0.3200E-01
    -13.961  0.0000E+00  0.0000E+00  0.3200E-01  0.3200E-01
    -13.852  0.0000E+00  0.0000E+00  0.3200E-01  0.3200E-01
    -13.742  0.0000E+00  0.0000E+00  0.3200E-01  0.3200E-01
    -13.633  0.0000E+00  0.0000E+00  0.3200E-01  0.3200E-01
    -13.523  0.0000E+00  0.0000E+00  0.3200E-01  0.3200E-01
    -13.414  0.0000E+00  0.0000E+00  0.3200E-01  0.3200E-01
    -13.304  0.0000E+00  0.0000E+00  0.3200E-01  0.3200E-01
    -13.195  0.0000E+00  0.0000E+00  0.3200E-01  0.3200E-01
    -13.085  0.0000E+00  0.0000E+00  0.3200E-01  0.3200E-01
    -12.976  0.0000E+00  0.0000E+00  0.3200E-01  0.3200E-01
    -12.866  0.0000E+00  0.0000E+00  0.3200E-01  0.3200E-01
    -12.757  0.0000E+00  0.0000E+00  0.3200E-01  0.3200E-01
    -12.647  0.0000E+00  0.0000E+00  0.3200E-01  0.3200E-01
    -12.538  0.0000E+00  0.0000E+00  0.3200E-01  0.3200E-01
    -12.429  0.0000E+00  0.0000E+00  0.3200E-01  0.3200E-01
    -12.319  0.0000E+00  0.0000E+00  0.3200E-01  0.3200E-01
    -12.210  0.0000E+00  0.0000E+00  0.3200E-01  0.3200E-01
    -12.100  0.0000E+00  0.0000E+00  0.3200E-01  0.3200E-01
    -11.991  0.0000E+00  0.0000E+00  0.3200E-01  0.3200E-01
    -11.881  0.0000E+00  0.0000E+00  0.3200E-01  0.3200E-01
    -11.772  0.0000E+00  0.0000E+00  0.3200E-01  0.3200E-01
    -11.662  0.0000E+00  0.0000E+00  0.3200E-01  0.3200E-01
    -11.553  0.0000E+00  0.0000E+00  0.3200E-01  0.3200E-01
    -11.443  0.0000E+00  0.0000E+00  0.3200E-01  0.3200E-01
    -11.334  0.0000E+00  0.0000E+00  0.3200E-01  0.3200E-01
    -11.224  0.0000E+00  0.0000E+00  0.3200E-01  0.3200E-01
    -11.115  0.0000E+00  0.0000E+00  0.3200E-01  0.3200E-01
    -11.005  0.0000E+00  0.0000E+00  0.3200E-01  0.3200E-01
    -10.896  0.0000E+00  0.0000E+00  0.3200E-01  0.3200E-01
    -10.786  0.0000E+00  0.0000E+00  0.3200E-01  0.3200E-01
    -10.677  0.0000E+00  0.0000E+00  0.3200E-01  0.3200E-01
    -10.568  0.0000E+00  0.0000E+00  0.3200E-01  0.3200E-01
    -10.458  0.0000E+00  0.0000E+00  0.3200E-01  0.3200E-01
    -10.349  0.0000E+00  0.0000E+00  0.3200E-01  0.3200E-01
    -10.239  0.0000E+00  0.0000E+00  0.3200E-01  0.3200E-01
    -10.130  0.0000E+00  0.0000E+00  0.3200E-01  0.3200E-01
    -10.020  0.0000E+00  0.0000E+00  0.3200E-01  0.3200E-01
     -9.911  0.0000E+00  0.0000E+00  0.3200E-01  0.3200E-01
     -9.801  0.0000E+00  0.0000E+00  0.3200E-01  0.3200E-01
     -9.692  0.0000E+00  0.0000E+00  0.3200E-01  0.3200E-01
     -9.582  0.0000E+00  0.0000E+00  0.3200E-01  0.3200E-01
     -9.473  0.0000E+00  0.0000E+00  0.3200E-01  0.3200E-01
     -9.363  0.0000E+00  0.0000E+00  0.3200E-01  0.3200E-01
     -9.254  0.0000E+00  0.0000E+00  0.3200E-01  0.3200E-01
     -9.144  0.0000E+00  0.0000E+00  0.3200E-01  0.3200E-01
     -9.035  0.0000E+00  0.0000E+00  0.3200E-01  0.3200E-01
     -8.926  0.0000E+00  0.0000E+00  0.3200E-01  0.3200E-01
     -8.816  0.0000E+00  0.0000E+00  0.3200E-01  0.3200E-01
     -8.707  0.0000E+00  0.0000E+00  0.3200E-01  0.3200E-01
     -8.597  0.0000E+00  0.0000E+00  0.3200E-01  0.3200E-01
     -8.488  0.0000E+00  0.0000E+00  0.3200E-01  0.3200E-01
     -8.378  0.0000E+00  0.0000E+00  0.3200E-01  0.3200E-01
     -8.269  0.0000E+00  0.0000E+00  0.3200E-01  0.3200E-01
     -8.159  0.0000E+00  0.0000E+00  0.3200E-01  0.3200E-01
     -8.050  0.0000E+00  0.0000E+00  0.3200E-01  0.3200E-01
     -7.940  0.0000E+00  0.0000E+00  0.3200E-01  0.3200E-01
     -7.831  0.0000E+00  0.0000E+00  0.3200E-01  0.3200E-01
     -7.721  0.0000E+00  0.0000E+00  0.3200E-01  0.3200E-01
     -7.612  0.0000E+00  0.0000E+00  0.3200E-01  0.3200E-01
     -7.502  0.0000E+00  0.0000E+00  0.3200E-01  0.3200E-01
     -7.393  0.0000E+00  0.0000E+00  0.3200E-01  0.3200E-01
     -7.284  0.0000E+00  0.0000E+00  0.3200E-01  0.3200E-01
     -7.174  0.0000E+00  0.0000E+00  0.3200E-01  0.3200E-01
     -7.065  0.0000E+00  0.0000E+00  0.3200E-01  0.3200E-01
     -6.955  0.0000E+00  0.0000E+00  0.3200E-01  0.3200E-01
     -6.846  0.0000E+00  0.0000E+00  0.3200E-01  0.3200E-01
     -6.736  0.0000E+00  0.0000E+00  0.3200E-01  0.3200E-01
     -6.627  0.0000E+00  0.0000E+00  0.3200E-01  0.3200E-01
     -6.517  0.0000E+00  0.0000E+00  0.3200E-01  0.3200E-01
     -6.408  0.0000E+00  0.0000E+00  0.3200E-01  0.3200E-01
     -6.298  0.0000E+00  0.0000E+00  0.3200E-01  0.3200E-01
     -6.189  0.0000E+00  0.0000E+00  0.3200E-01  0.3200E-01
     -6.079  0.0000E+00  0.0000E+00  0.3200E-01  0.3200E-01
     -5.970  0.0000E+00  0.0000E+00  0.3200E-01  0.3200E-01
     -5.860  0.0000E+00  0.0000E+00  0.3200E-01  0.3200E-01
     -5.751  0.0000E+00  0.0000E+00  0.3200E-01  0.3200E-01
     -5.641  0.0000E+00  0.0000E+00  0.3200E-01  0.3200E-01
     -5.532  0.0000E+00  0.0000E+00  0.3200E-01  0.3200E-01
     -5.423  0.0000E+00  0.0000E+00  0.3200E-01  0.3200E-01
     -5.313  0.0000E+00  0.0000E+00  0.3200E-01  0.3200E-01
     -5.204  0.0000E+00  0.0000E+00  0.3200E-01  0.3200E-01
     -5.094  0.0000E+00  0.0000E+00  0.3200E-01  0.3200E-01
     -4.985  0.0000E+00  0.0000E+00  0.3200E-01  0.3200E-01
     -4.875  0.0000E+00  0.0000E+00  0.3200E-01  0.3200E-01
     -4.766  0.0000E+00  0.0000E+00  0.3200E-01  0.3200E-01
     -4.656  0.0000E+00  0.0000E+00  0.3200E-01  0.3200E-01
     -4.547  0.0000E+00  0.0000E+00  0.3200E-01  0.3200E-01
     -4.437  0.0000E+00  0.0000E+00  0.3200E-01  0.3200E-01
     -4.328  0.0000E+00  0.0000E+00  0.3200E-01  0.3200E-01
     -4.218  0.0000E+00  0.0000E+00  0.3200E-01  0.3200E-01
     -4.109  0.0000E+00  0.0000E+00  0.3200E-01  0.3200E-01
     -3.999  0.0000E+00  0.0000E+00  0.3200E-01  0.3200E-01
     -3.890  0.0000E+00  0.0000E+00  0.3200E-01  0.3200E-01
     -3.781  0.0000E+00  0.0000E+00  0.3200E-01  0.3200E-01
     -3.671  0.0000E+00  0.0000E+00  0.3200E-01  0.3200E-01
     -3.562  0.0000E+00  0.0000E+00  0.3200E-01  0.3200E-01
     -3.452  0.0000E+00  0.0000E+00  0.3200E-01  0.3200E-01
     -3.343  0.2841E-08  0.1630E-08  0.3200E-01  0.3200E-01
     -3.233  0.2019E-02  0.1880E-02  0.3222E-01  0.3221E-01
     -3.124  0.1499E-01  0.1435E-01  0.3386E-01  0.3378E-01
     -3.014  0.3139E-01  0.3117E-01  0.3730E-01  0.3719E-01
     -2.905  0.2455E-01  0.2480E-01  0.3999E-01  0.3990E-01
     -2.795  0.2615E-01  0.2577E-01  0.4285E-01  0.4272E-01
     -2.686  0.3324E-01  0.3091E-01  0.4649E-01  0.4611E-01
     -2.576  0.3266E-01  0.3202E-01  0.5006E-01  0.4961E-01
     -2.467  0.2445E-01  0.2662E-01  0.5274E-01  0.5253E-01
     -2.357  0.2800E-01  0.2829E-01  0.5580E-01  0.5562E-01
     -2.248  0.3191E-01  0.2962E-01  0.5930E-01  0.5887E-01
     -2.139  0.2777E-01  0.2583E-01  0.6234E-01  0.6169E-01
     -2.029  0.3323E-01  0.2442E-01  0.6597E-01  0.6437E-01
     -1.920  0.3087E-01  0.3137E-01  0.6935E-01  0.6780E-01
     -1.810  0.2629E-01  0.2320E-01  0.7223E-01  0.7034E-01
     -1.701  0.2013E-01  0.2013E-01  0.7444E-01  0.7255E-01
     -1.591  0.2104E-01  0.2382E-01  0.7674E-01  0.7515E-01
     -1.482  0.1535E-01  0.1647E-01  0.7842E-01  0.7696E-01
     -1.372  0.1975E-01  0.2469E-01  0.8058E-01  0.7966E-01
     -1.263  0.1978E-01  0.1590E-01  0.8275E-01  0.8140E-01
     -1.153  0.2382E-01  0.2107E-01  0.8536E-01  0.8371E-01
     -1.044  0.3112E-01  0.2638E-01  0.8876E-01  0.8659E-01
     -0.934  0.2962E-01  0.2646E-01  0.9201E-01  0.8949E-01
     -0.825  0.2858E-01  0.3416E-01  0.9513E-01  0.9323E-01
     -0.715  0.2875E-01  0.2976E-01  0.9828E-01  0.9649E-01
     -0.606  0.3327E-01  0.4012E-01  0.1019E+00  0.1009E+00
     -0.496  0.2742E-01  0.3136E-01  0.1049E+00  0.1043E+00
     -0.387  0.3122E-01  0.2913E-01  0.1083E+00  0.1075E+00
     -0.278  0.3620E-01  0.3901E-01  0.1123E+00  0.1118E+00
     -0.168  0.3766E-01  0.3792E-01  0.1164E+00  0.1159E+00
     -0.059  0.4208E-01  0.4080E-01  0.1210E+00  0.1204E+00
      0.051  0.8790E-02  0.1471E-01  0.1220E+00  0.1220E+00
      0.160  0.1887E-02  0.9397E-03  0.1222E+00  0.1221E+00
      0.270  0.1327E-01  0.1379E-01  0.1237E+00  0.1236E+00
      0.379  0.2543E-01  0.2283E-01  0.1264E+00  0.1261E+00
      0.489  0.1308E-01  0.1480E-01  0.1279E+00  0.1277E+00
      0.598  0.1169E-02  0.2457E-02  0.1280E+00  0.1280E+00
      0.708  0.3471E-08  0.1328E-06  0.1280E+00  0.1280E+00
      0.817  0.0000E+00  0.0000E+00  0.1280E+00  0.1280E+00
      0.927  0.0000E+00  0.0000E+00  0.1280E+00  0.1280E+00
      1.036  0.0000E+00  0.0000E+00  0.1280E+00  0.1280E+00
      1.146  0.0000E+00  0.0000E+00  0.1280E+00  0.1280E+00
      1.255  0.0000E+00  0.0000E+00  0.1280E+00  0.1280E+00
      1.364  0.0000E+00  0.0000E+00  0.1280E+00  0.1280E+00
      1.474  0.0000E+00  0.0000E+00  0.1280E+00  0.1280E+00
      1.583  0.0000E+00  0.0000E+00  0.1280E+00  0.1280E+00
      1.693  0.0000E+00  0.0000E+00  0.1280E+00  0.1280E+00
      1.802  0.0000E+00  0.0000E+00  0.1280E+00  0.1280E+00
      1.912  0.0000E+00  0.0000E+00  0.1280E+00  0.1280E+00
      2.021  0.0000E+00  0.0000E+00  0.1280E+00  0.1280E+00
      2.131  0.0000E+00  0.0000E+00  0.1280E+00  0.1280E+00
      2.240  0.0000E+00  0.0000E+00  0.1280E+00  0.1280E+00
      2.350  0.0000E+00  0.0000E+00  0.1280E+00  0.1280E+00
      2.459  0.0000E+00  0.0000E+00  0.1280E+00  0.1280E+00
      2.569  0.0000E+00  0.0000E+00  0.1280E+00  0.1280E+00
      2.678  0.6432E-14  0.0000E+00  0.1280E+00  0.1280E+00
      2.788  0.1392E-03  0.0000E+00  0.1280E+00  0.1280E+00
      2.897  0.1770E-01  0.0000E+00  0.1300E+00  0.1280E+00
      3.007  0.4334E-03  0.0000E+00  0.1300E+00  0.1280E+00
      3.116  0.0000E+00  0.0000E+00  0.1300E+00  0.1280E+00
      3.225  0.0000E+00  0.0000E+00  0.1300E+00  0.1280E+00
      3.335  0.0000E+00  0.0000E+00  0.1300E+00  0.1280E+00
      3.444  0.0000E+00  0.0000E+00  0.1300E+00  0.1280E+00
      3.554  0.0000E+00  0.0000E+00  0.1300E+00  0.1280E+00
      3.663  0.0000E+00  0.0000E+00  0.1300E+00  0.1280E+00
      3.773  0.0000E+00  0.0000E+00  0.1300E+00  0.1280E+00
      3.882  0.4478E-13  0.8348E-14  0.1300E+00  0.1280E+00
      3.992  0.1913E-03  0.1166E-03  0.1300E+00  0.1280E+00
      4.101  0.2875E-01  0.2785E-01  0.1332E+00  0.1311E+00
      4.211  0.4271E-01  0.4332E-01  0.1378E+00  0.1358E+00
      4.320  0.1937E-01  0.1847E-01  0.1400E+00  0.1378E+00
      4.430  0.1860E-01  0.1985E-01  0.1420E+00  0.1400E+00
      4.539  0.1921E-03  0.6817E-05  0.1420E+00  0.1400E+00
      4.649  0.1833E-01  0.4475E-03  0.1440E+00  0.1400E+00
      4.758  0.7033E-02  0.5692E-02  0.1448E+00  0.1407E+00
      4.867  0.2417E-01  0.2367E-01  0.1474E+00  0.1433E+00
      4.977  0.3424E-01  0.3161E-01  0.1512E+00  0.1467E+00
      5.086  0.4152E-01  0.4187E-01  0.1557E+00  0.1513E+00
      5.196  0.2754E-01  0.2791E-01  0.1588E+00  0.1544E+00
      5.305  0.2336E-01  0.2961E-01  0.1613E+00  0.1576E+00
      5.415  0.2024E-01  0.1751E-01  0.1635E+00  0.1595E+00
      5.524  0.8465E-02  0.4369E-02  0.1644E+00  0.1600E+00
      5.634  0.2432E-01  0.1556E-04  0.1671E+00  0.1600E+00
      5.743  0.4262E-02  0.2265E-02  0.1676E+00  0.1602E+00
      5.853  0.3847E-02  0.1464E-01  0.1680E+00  0.1619E+00
      5.962  0.4658E-07  0.1469E-02  0.1680E+00  0.1620E+00
      6.072  0.0000E+00  0.2281E-01  0.1680E+00  0.1645E+00
      6.181  0.0000E+00  0.7550E-02  0.1680E+00  0.1653E+00
      6.291  0.0000E+00  0.6190E-02  0.1680E+00  0.1660E+00
      6.400  0.2481E-16  0.1391E-01  0.1680E+00  0.1675E+00
      6.509  0.4708E-05  0.4237E-02  0.1680E+00  0.1680E+00
      6.619  0.3752E-03  0.3340E-03  0.1680E+00  0.1680E+00
      6.728  0.4257E-03  0.1113E-03  0.1681E+00  0.1680E+00
      6.838  0.3362E-03  0.6965E-03  0.1681E+00  0.1681E+00
      6.947  0.5871E-06  0.6585E-07  0.1681E+00  0.1681E+00
      7.057  0.7458E-03  0.6233E-03  0.1682E+00  0.1682E+00
      7.166  0.2106E-02  0.1515E-02  0.1684E+00  0.1684E+00
      7.276  0.1617E-02  0.1676E-02  0.1686E+00  0.1685E+00
      7.385  0.8645E-03  0.1515E-02  0.1687E+00  0.1687E+00
      7.495  0.8630E-03  0.7638E-03  0.1688E+00  0.1688E+00
      7.604  0.4224E-02  0.3266E-02  0.1693E+00  0.1691E+00
      7.714  0.2530E-02  0.3571E-02  0.1695E+00  0.1695E+00
      7.823  0.2069E-02  0.1665E-02  0.1698E+00  0.1697E+00
      7.933  0.2708E-02  0.2399E-02  0.1701E+00  0.1700E+00
      8.042  0.1534E-02  0.1980E-02  0.1702E+00  0.1702E+00
      8.152  0.2412E-02  0.2454E-02  0.1705E+00  0.1705E+00
      8.261  0.2588E-02  0.1456E-02  0.1708E+00  0.1706E+00
      8.370  0.4966E-02  0.6267E-02  0.1713E+00  0.1713E+00
      8.480  0.1413E-02  0.1045E-02  0.1715E+00  0.1714E+00
      8.589  0.6789E-02  0.5952E-02  0.1722E+00  0.1721E+00
      8.699  0.8281E-02  0.7686E-02  0.1731E+00  0.1729E+00
      8.808  0.9158E-02  0.8410E-02  0.1741E+00  0.1738E+00
      8.918  0.6749E-02  0.7421E-02  0.1749E+00  0.1747E+00
      9.027  0.3317E-02  0.4723E-02  0.1752E+00  0.1752E+00
      9.137  0.2038E-02  0.2342E-02  0.1755E+00  0.1754E+00
      9.246  0.2997E-02  0.2630E-02  0.1758E+00  0.1757E+00
      9.356  0.1395E-02  0.1357E-02  0.1759E+00  0.1759E+00
      9.465  0.8006E-02  0.7695E-02  0.1768E+00  0.1767E+00
      9.575  0.7160E-02  0.7294E-02  0.1776E+00  0.1775E+00
      9.684  0.1080E-01  0.8449E-02  0.1788E+00  0.1784E+00
      9.794  0.9949E-02  0.1059E-01  0.1799E+00  0.1796E+00
      9.903  0.5238E-02  0.6787E-02  0.1804E+00  0.1803E+00
     10.012  0.8635E-02  0.7407E-02  0.1814E+00  0.1811E+00
     10.122  0.8375E-02  0.9528E-02  0.1823E+00  0.1822E+00
     10.231  0.9150E-02  0.7759E-02  0.1833E+00  0.1830E+00
     10.341  0.9995E-02  0.9263E-02  0.1844E+00  0.1841E+00
     10.450  0.1308E-01  0.1373E-01  0.1858E+00  0.1856E+00
     10.560  0.8388E-02  0.9083E-02  0.1867E+00  0.1865E+00
     10.669  0.1360E-01  0.1176E-01  0.1882E+00  0.1878E+00
     10.779  0.1292E-01  0.1344E-01  0.1897E+00  0.1893E+00
     10.888  0.1189E-01  0.1096E-01  0.1910E+00  0.1905E+00
     10.998  0.9364E-02  0.1106E-01  0.1920E+00  0.1917E+00
     11.107  0.8206E-02  0.6741E-02  0.1929E+00  0.1925E+00
     11.217  0.7132E-02  0.1031E-01  0.1937E+00  0.1936E+00
     11.326  0.5890E-02  0.5039E-02  0.1943E+00  0.1941E+00
     11.436  0.6677E-02  0.6582E-02  0.1950E+00  0.1949E+00
     11.545  0.8557E-02  0.8763E-02  0.1960E+00  0.1958E+00
     11.654  0.7091E-02  0.6379E-02  0.1967E+00  0.1965E+00
     11.764  0.1079E-01  0.1037E-01  0.1979E+00  0.1976E+00
     11.873  0.7164E-02  0.8772E-02  0.1987E+00  0.1986E+00
     11.983  0.5375E-02  0.4600E-02  0.1993E+00  0.1991E+00
     12.092  0.5587E-02  0.5953E-02  0.1999E+00  0.1998E+00
     12.202  0.3776E-02  0.4092E-02  0.2003E+00  0.2002E+00
     12.311  0.3997E-02  0.3249E-02  0.2008E+00  0.2006E+00
     12.421  0.7180E-02  0.8024E-02  0.2015E+00  0.2014E+00
     12.530  0.2720E-02  0.3365E-02  0.2018E+00  0.2018E+00
     12.640  0.4076E-02  0.2510E-02  0.2023E+00  0.2021E+00
     12.749  0.8236E-02  0.8558E-02  0.2032E+00  0.2030E+00
     12.859  0.8519E-02  0.7392E-02  0.2041E+00  0.2038E+00
     12.968  0.8502E-02  0.9499E-02  0.2051E+00  0.2049E+00
     13.078  0.7791E-02  0.9351E-02  0.2059E+00  0.2059E+00
     13.187  0.7880E-02  0.6819E-02  0.2068E+00  0.2066E+00
     13.297  0.5070E-02  0.6499E-02  0.2073E+00  0.2074E+00
     13.406  0.2691E-02  0.3915E-02  0.2076E+00  0.2078E+00
     13.515  0.2710E-02  0.1181E-02  0.2079E+00  0.2079E+00
     13.625  0.7396E-03  0.3582E-04  0.2080E+00  0.2079E+00
     13.734  0.5206E-09  0.7378E-03  0.2080E+00  0.2080E+00
     13.844  0.0000E+00  0.3897E-06  0.2080E+00  0.2080E+00
     13.953  0.0000E+00  0.0000E+00  0.2080E+00  0.2080E+00
     14.063  0.0000E+00  0.0000E+00  0.2080E+00  0.2080E+00
     14.172  0.0000E+00  0.0000E+00  0.2080E+00  0.2080E+00
     14.282  0.0000E+00  0.0000E+00  0.2080E+00  0.2080E+00
     14.391  0.0000E+00  0.0000E+00  0.2080E+00  0.2080E+00
     14.501  0.0000E+00  0.0000E+00  0.2080E+00  0.2080E+00
     14.610  0.0000E+00  0.0000E+00  0.2080E+00  0.2080E+00
     14.720  0.0000E+00  0.0000E+00  0.2080E+00  0.2080E+00
     14.829  0.0000E+00  0.0000E+00  0.2080E+00  0.2080E+00
     14.939  0.0000E+00  0.0000E+00  0.2080E+00  0.2080E+00
     15.048  0.0000E+00  0.0000E+00  0.2080E+00  0.2080E+00
     15.157  0.0000E+00  0.0000E+00  0.2080E+00  0.2080E+00
