 vasp.5.4.1 05Feb16 (build Apr 23 2022 14:15:44) complex                        
  
 executed on           IFC91_ompi date 2024.11.25  16:59:16
 running on   64 total cores
 distrk:  each k-point on   64 cores,    1 groups
 distr:  one band on NCORES_PER_BAND=   8 cores,    8 groups


--------------------------------------------------------------------------------------------------------


 INCAR:
 POTCAR:    PAW_PBE Li 17Jan2003                  
 POTCAR:    PAW_PBE V 08Apr2002                   
 POTCAR:    PAW_PBE O 08Apr2002                   
 POTCAR:    PAW_PBE Li 17Jan2003                  
   VRHFIN =Li: s1p0                                                             
   LEXCH  = PE                                                                  
   EATOM  =     5.3001 eV,    0.3895 Ry                                         
                                                                                
   TITEL  = PAW_PBE Li 17Jan2003                                                
   LULTRA =        F    use ultrasoft PP ?                                      
   IUNSCR =        1    unscreen: 0-lin 1-nonlin 2-no                           
   RPACOR =    1.500    partial core radius                                     
   POMASS =    7.010; ZVAL   =    1.000    mass and valenz                      
   RCORE  =    2.050    outmost cutoff radius                                   
   RWIGS  =    2.600; RWIGS  =    1.376    wigner-seitz radius (au A)           
   ENMAX  =  140.000; ENMIN  =  100.000 eV                                      
   ICORE  =        2    local potential                                         
   LCOR   =        T    correct aug charges                                     
   LPAW   =        T    paw PP                                                  
   EAUG   =  331.638                                                            
   DEXC   =    0.000                                                            
   RMAX   =    2.098    core radius for proj-oper                               
   RAUG   =    1.300    factor for augmentation sphere                          
   RDEP   =    2.094    radius for radial grids                                 
   RDEPT  =    1.810    core radius for aug-charge                              
                                                                                
   Atomic configuration                                                         
    4 entries                                                                   
     n  l   j            E        occ.                                          
     1  0  0.50       -51.8549   2.0000                                         
     2  0  0.50        -2.8742   1.0000                                         
     2  1  0.50        -1.3606   0.0000                                         
     3  2  1.50        -1.3606   0.0000                                         
   Description                                                                  
     l       E           TYP  RCUT    TYP  RCUT                                 
     0     -2.8742052     23  2.050                                             
     0     27.2116520     23  2.050                                             
     1     -1.3605826     23  2.050                                             
     2     -1.3605826     23  2.050                                             
  local pseudopotential read in
  partial core-charges read in
  partial kinetic energy density read in
  atomic valenz-charges read in
  non local Contribution for L=           0  read in
    real space projection operators read in
  non local Contribution for L=           0  read in
    real space projection operators read in
  non local Contribution for L=           1  read in
    real space projection operators read in
    PAW grid and wavefunctions read in
 
   number of l-projection  operators is LMAX  =           3
   number of lm-projection operators is LMMAX =           5
 
 POTCAR:    PAW_PBE V 08Apr2002                   
   VRHFIN =V: p6 d4 s1                                                          
   LEXCH  = PE                                                                  
   EATOM  =   170.8679 eV,   12.5584 Ry                                         
                                                                                
   TITEL  = PAW_PBE V 08Apr2002                                                 
   LULTRA =        F    use ultrasoft PP ?                                      
   IUNSCR =        1    unscreen: 0-lin 1-nonlin 2-no                           
   RPACOR =    2.000    partial core radius                                     
   POMASS =   50.941; ZVAL   =    5.000    mass and valenz                      
   RCORE  =    2.700    outmost cutoff radius                                   
   RWIGS  =    2.500; RWIGS  =    1.323    wigner-seitz radius (au A)           
   ENMAX  =  192.543; ENMIN  =  144.408 eV                                      
   RCLOC  =    1.779    cutoff for local pot                                    
   LCOR   =        T    correct aug charges                                     
   LPAW   =        T    paw PP                                                  
   EAUG   =  358.662                                                            
   DEXC   =    0.000                                                            
   RMAX   =    2.768    core radius for proj-oper                               
   RAUG   =    1.300    factor for augmentation sphere                          
   RDEP   =    2.762    radius for radial grids                                 
   RDEPT  =    2.240    core radius for aug-charge                              
                                                                                
   Atomic configuration                                                         
    9 entries                                                                   
     n  l   j            E        occ.                                          
     1  0  0.50     -5360.7193   2.0000                                         
     2  0  0.50      -598.4546   2.0000                                         
     2  1  1.50      -499.0155   6.0000                                         
     3  0  0.50       -66.5711   2.0000                                         
     3  1  1.50       -40.5282   6.0000                                         
     3  2  2.50        -2.4291   4.0000                                         
     4  0  0.50        -3.8743   1.0000                                         
     4  1  0.50        -2.7212   0.0000                                         
     4  3  2.50        -1.3606   0.0000                                         
   Description                                                                  
     l       E           TYP  RCUT    TYP  RCUT                                 
     2     -2.4290901     23  2.700                                             
     2     -3.7896727     23  2.700                                             
     0     -3.8742752     23  2.700                                             
     0     27.2116520     23  2.700                                             
     1     -2.7211652     23  2.700                                             
     1     27.2116520     23  2.700                                             
  local pseudopotential read in
  partial core-charges read in
  partial kinetic energy density read in
  atomic valenz-charges read in
  non local Contribution for L=           2  read in
    real space projection operators read in
  non local Contribution for L=           2  read in
    real space projection operators read in
  non local Contribution for L=           0  read in
    real space projection operators read in
  non local Contribution for L=           0  read in
    real space projection operators read in
  non local Contribution for L=           1  read in
    real space projection operators read in
  non local Contribution for L=           1  read in
    real space projection operators read in
    PAW grid and wavefunctions read in
 
   number of l-projection  operators is LMAX  =           6
   number of lm-projection operators is LMMAX =          18
 
 POTCAR:    PAW_PBE O 08Apr2002                   
   VRHFIN =O: s2p4                                                              
   LEXCH  = PE                                                                  
   EATOM  =   432.3788 eV,   31.7789 Ry                                         
                                                                                
   TITEL  = PAW_PBE O 08Apr2002                                                 
   LULTRA =        F    use ultrasoft PP ?                                      
   IUNSCR =        1    unscreen: 0-lin 1-nonlin 2-no                           
   RPACOR =    1.200    partial core radius                                     
   POMASS =   16.000; ZVAL   =    6.000    mass and valenz                      
   RCORE  =    1.520    outmost cutoff radius                                   
   RWIGS  =    1.550; RWIGS  =    0.820    wigner-seitz radius (au A)           
   ENMAX  =  400.000; ENMIN  =  300.000 eV                                      
   ICORE  =        2    local potential                                         
   LCOR   =        T    correct aug charges                                     
   LPAW   =        T    paw PP                                                  
   EAUG   =  605.392                                                            
   DEXC   =    0.000                                                            
   RMAX   =    1.553    core radius for proj-oper                               
   RAUG   =    1.300    factor for augmentation sphere                          
   RDEP   =    1.550    radius for radial grids                                 
   RDEPT  =    1.329    core radius for aug-charge                              
                                                                                
   Atomic configuration                                                         
    4 entries                                                                   
     n  l   j            E        occ.                                          
     1  0  0.50      -514.6923   2.0000                                         
     2  0  0.50       -23.9615   2.0000                                         
     2  1  0.50        -9.0305   4.0000                                         
     3  2  1.50        -9.5241   0.0000                                         
   Description                                                                  
     l       E           TYP  RCUT    TYP  RCUT                                 
     0    -23.9615318     23  1.200                                             
     0     -9.5240782     23  1.200                                             
     1     -9.0304911     23  1.520                                             
     1      8.1634956     23  1.520                                             
     2     -9.5240782      7  1.500                                             
  local pseudopotential read in
  partial core-charges read in
  partial kinetic energy density read in
  kinetic energy density of atom read in
  atomic valenz-charges read in
  non local Contribution for L=           0  read in
    real space projection operators read in
  non local Contribution for L=           0  read in
    real space projection operators read in
  non local Contribution for L=           1  read in
    real space projection operators read in
  non local Contribution for L=           1  read in
    real space projection operators read in
    PAW grid and wavefunctions read in
 
   number of l-projection  operators is LMAX  =           4
   number of lm-projection operators is LMMAX =           8
 
 Optimization of the real space projectors (new method)

 maximal supplied QI-value         = 18.33
 optimisation between [QCUT,QGAM] = [ 12.46, 24.93] = [ 43.51,174.03] Ry 
 Optimized for a Real-space Cutoff    1.13 Angstroem

   l    n(q)    QCUT    max X(q) W(low)/X(q) W(high)/X(q)  e(spline) 
   0      8    12.465    33.825    0.12E-03    0.29E-03    0.99E-07
   0      8    12.465     8.944    0.86E-04    0.22E-03    0.72E-07
   1      8    12.465     4.214    0.27E-03    0.11E-03    0.82E-07
 Optimization of the real space projectors (new method)

 maximal supplied QI-value         = 13.98
 optimisation between [QCUT,QGAM] = [ 12.45, 25.03] = [ 43.38,175.46] Ry 
 Optimized for a Real-space Cutoff    1.56 Angstroem

   l    n(q)    QCUT    max X(q) W(low)/X(q) W(high)/X(q)  e(spline) 
   2     11    12.446    96.114    0.19E-03    0.47E-04    0.85E-06
   2     11    12.446    88.986    0.19E-03    0.46E-04    0.86E-06
   0     12    12.446    20.919    0.37E-04    0.64E-04    0.43E-06
   0     12    12.446     9.593    0.25E-04    0.48E-04    0.33E-06
   1     11    12.446    11.615    0.75E-04    0.30E-04    0.59E-06
   1     11    12.446     7.031    0.53E-04    0.23E-04    0.40E-06
 Optimization of the real space projectors (new method)

 maximal supplied QI-value         = 24.76
 optimisation between [QCUT,QGAM] = [ 12.38, 25.00] = [ 42.90,175.06] Ry 
 Optimized for a Real-space Cutoff    1.13 Angstroem

   l    n(q)    QCUT    max X(q) W(low)/X(q) W(high)/X(q)  e(spline) 
   0      8    12.378    20.381    0.16E-03    0.54E-05    0.27E-06
   0      8    12.378    15.268    0.17E-03    0.61E-05    0.29E-06
   1      8    12.378     5.964    0.38E-03    0.23E-03    0.28E-06
   1      8    12.378     5.382    0.33E-03    0.20E-03    0.25E-06
  PAW_PBE Li 17Jan2003                  :
 energy of atom  1       EATOM=   -5.3001
 kinetic energy error for atom=    0.0000 (will be added to EATOM!!)
  PAW_PBE V 08Apr2002                   :
 energy of atom  2       EATOM= -170.8679
 kinetic energy error for atom=    0.0002 (will be added to EATOM!!)
  PAW_PBE O 08Apr2002                   :
 energy of atom  3       EATOM= -432.3788
 kinetic energy error for atom=    0.0168 (will be added to EATOM!!)
 
 
 POSCAR: Li  V  O                                
  positions in cartesian coordinates
  No initial velocities read in
 exchange correlation table for  LEXCH =        8
   RHO(1)=    0.500       N(1)  =     2000
   RHO(2)=  100.500       N(2)  =     4000

 VTST: version 3.1, (03/28/14)

 CHAIN: initializing optimizer
 
 OPT: Using VASP Conjugate-Gradient optimizer
 CHAIN: Read ICHAIN            0
 
 POSCAR: Li  V  O                                
  positions in cartesian coordinates
  No initial velocities read in
 


--------------------------------------------------------------------------------------------------------


 ion  position               nearest neighbor table
   1  0.009  0.660  0.261-  25 1.89  18 1.95  24 1.96  29 1.99   2 2.94  15 3.02  13 3.03   6 3.04
                            17 3.08   4 3.11   5 3.12   9 3.13  16 3.15   4 3.15  16 3.15   5 3.16
   2  0.248  0.336  0.255-  18 1.93  21 1.94  19 1.95  23 1.99   7 2.36   1 2.94   6 3.02  14 3.04
                            16 3.05  15 3.06   3 3.07   5 3.10   8 3.18   3 3.19   6 3.24
   3  0.248  0.336  0.765-  20 1.93  22 1.94  19 1.95  23 1.99   7 2.36   4 2.94   6 3.02  14 3.04
                            16 3.05  15 3.06   2 3.07   5 3.11  11 3.18   2 3.19   6 3.24
   4  0.009  0.661  0.758-  25 1.89  20 1.95  24 1.96  30 1.99   3 2.94  15 3.02  13 3.03   6 3.05
                            17 3.08   1 3.11   5 3.12  10 3.13  16 3.15   1 3.15  16 3.15   5 3.16
   5  0.997  0.157  0.510-  25 1.93  18 1.98  20 1.98  31 2.02  15 2.95   9 3.00  10 3.00  17 3.09
                             2 3.10   3 3.11   4 3.12   1 3.12  16 3.13  16 3.13   1 3.16   4 3.16
   6  0.259  0.813  0.010-  22 1.97  21 1.97  24 2.02  19 2.03   8 2.91  11 2.91   2 3.02   3 3.02
                             1 3.04   4 3.05  14 3.10  15 3.14  15 3.14  16 3.17   2 3.24   3 3.24
   7  0.406  0.480  0.510-  23 1.93  21 1.96  22 1.96  12 2.25  11 2.28   8 2.28   3 2.36   2 2.36
                            28 2.37  26 2.37  33 2.38  15 2.58
   8  0.507  0.680  0.234-  32 1.86  21 1.93  33 1.94  26 1.98   7 2.28  11 2.81   6 2.91  12 2.96
                            13 2.99  14 3.05  17 3.05  14 3.09   9 3.11   2 3.18  15 3.23
   9  0.753  0.322  0.261-  27 1.92  29 1.94  31 1.95  26 1.98  12 2.99   5 3.00  16 3.02  14 3.06
                            17 3.08   8 3.11  10 3.12  13 3.13   1 3.13  10 3.14  13 3.17  17 3.20
  10  0.753  0.322  0.759-  27 1.92  30 1.94  31 1.95  28 1.98  12 2.99   5 3.00  16 3.02  14 3.06
                            17 3.08  11 3.11   9 3.12  13 3.13   4 3.13   9 3.14  13 3.17  17 3.20
  11  0.507  0.680  0.785-  32 1.87  22 1.93  33 1.94  28 1.98   7 2.28   8 2.81   6 2.91  12 2.96
                            13 2.99  14 3.05  17 3.05  14 3.09  10 3.11   3 3.18  15 3.23
  12  0.520  0.121  0.510-  33 1.89  23 1.98  28 2.04  26 2.05   7 2.25  17 2.84  11 2.96   8 2.96
                            10 2.99   9 2.99  15 3.06  14 3.15  14 3.15
  13  0.762  0.826  0.010-  27 1.94  30 1.96  29 1.96  32 1.97  16 2.97  11 2.99   8 2.99   1 3.03
                             4 3.03   9 3.13  10 3.13  17 3.13  17 3.13   9 3.17  10 3.17  14 3.21
  14  0.500  0.177  0.010-  19 1.72  32 1.74  26 1.75  28 1.75   2 3.04   3 3.04   8 3.05  11 3.05
                             9 3.06  10 3.06  11 3.09   8 3.09   6 3.10  12 3.15  12 3.15  13 3.21
  15  0.247  0.857  0.510-  25 1.78  23 1.81  21 1.86  22 1.86   7 2.58   5 2.95   4 3.02   1 3.02
                            12 3.06   2 3.06   3 3.06   6 3.14   6 3.14  11 3.23   8 3.23
  16  1.000  0.160  0.010-  24 1.73  27 1.74  20 1.74  18 1.74  13 2.97  10 3.02   9 3.02   3 3.05
                             2 3.05   5 3.13   5 3.13   4 3.15   1 3.15   1 3.15   4 3.15   6 3.17
  17  0.752  0.809  0.510-  30 1.73  29 1.73  31 1.74  33 1.75  12 2.84  11 3.05   8 3.05  10 3.08
                             9 3.08   4 3.08   1 3.08   5 3.09  13 3.13  13 3.13   9 3.20  10 3.20
  18  0.053  0.312  0.238-  16 1.74   2 1.93   1 1.95   5 1.98
  19  0.326  0.165  0.010-  14 1.72   2 1.95   3 1.95   6 2.03
  20  0.053  0.312  0.781-  16 1.74   3 1.93   4 1.95   5 1.98
  21  0.314  0.669  0.285-  15 1.86   8 1.93   2 1.94   7 1.96   6 1.97
  22  0.314  0.669  0.735-  15 1.86  11 1.93   3 1.94   7 1.96   6 1.97
  23  0.321  0.162  0.510-  15 1.81   7 1.93  12 1.98   3 1.99   2 1.99
  24  0.055  0.858  0.010-  16 1.73   1 1.96   4 1.96   6 2.02
  25  0.068  0.827  0.510-  15 1.78   4 1.89   1 1.89   5 1.93
  26  0.553  0.327  0.242-  14 1.75   8 1.98   9 1.98  12 2.05   7 2.37
  27  0.824  0.163  0.010-  16 1.74   9 1.92  10 1.92  13 1.94
  28  0.553  0.327  0.778-  14 1.75  11 1.98  10 1.98  12 2.04   7 2.37
  29  0.808  0.663  0.281-  17 1.73   9 1.94  13 1.96   1 1.99
  30  0.808  0.663  0.739-  17 1.73  10 1.94  13 1.96   4 1.99
  31  0.793  0.119  0.510-  17 1.74   9 1.95  10 1.95   5 2.02
  32  0.565  0.879  0.010-  14 1.74   8 1.86  11 1.87  13 1.97
  33  0.575  0.789  0.510-  17 1.75  12 1.89  11 1.94   8 1.94   7 2.38
 
  LATTYP: Found a triclinic cell.
 ALAT       =    14.6658969809
 B/A-ratio  =     0.3716308045
 C/A-ratio  =     0.4268014918
 COS(alpha) =     0.0001009457
 COS(beta)  =     0.0001440987
 COS(gamma) =     0.7398221235
  
  Lattice vectors:
  
 A1 = (   9.8371443466, -10.8774593650,   0.0017659901)
 A2 = (  -0.0151049155,  -5.4502779154,   0.0016422666)
 A3 = (  -0.0003148239,  -0.0025170699,  -6.2594261960)


Analysis of symmetry for initial positions (statically):
=====================================================================
 Subroutine PRICEL returns:
 Original cell was already a primitive cell.
 

 Routine SETGRP: Setting up the symmetry group for a 
 triclinic supercell.


 Subroutine GETGRP returns: Found  1 space group operations
 (whereof  1 operations were pure point group operations)
 out of a pool of  2 trial point group operations.


The static configuration has the point symmetry C_1 .


Analysis of symmetry for dynamics (positions and initial velocities):
=====================================================================
 Subroutine PRICEL returns:
 Original cell was already a primitive cell.
 

 Routine SETGRP: Setting up the symmetry group for a 
 triclinic supercell.


 Subroutine GETGRP returns: Found  1 space group operations
 (whereof  1 operations were pure point group operations)
 out of a pool of  2 trial point group operations.


The dynamic configuration has the point symmetry C_1 .


Analysis of structural, dynamic, and magnetic symmetry:
=====================================================================
 Subroutine PRICEL returns:
 Original cell was already a primitive cell.
 

 Routine SETGRP: Setting up the symmetry group for a 
 triclinic supercell.


 Subroutine GETGRP returns: Found  1 space group operations
 (whereof  1 operations were pure point group operations)
 out of a pool of  2 trial point group operations.


The magnetic configuration has the point symmetry C_1 .


 Subroutine INISYM returns: Found  1 space group operations
 (whereof  1 operations are pure point group operations),
 and found     1 'primitive' translations

 
 
 KPOINTS: KPOINTS created by Atomic Simulation Env

Automatic generation of k-mesh.
Space group operators:
 irot       det(A)        alpha          n_x          n_y          n_z        tau_x        tau_y        tau_z
    1     1.000000     0.000000     1.000000     0.000000     0.000000     0.000000     0.000000     0.000000
 
 Subroutine IBZKPT returns following result:
 ===========================================
 
 Found     26 irreducible k-points:
 
 Following reciprocal coordinates:
            Coordinates               Weight
  0.000000  0.000000  0.000000      1.000000
  0.250000 -0.000000 -0.000000      2.000000
  0.500000 -0.000000 -0.000000      1.000000
  0.000000  0.250000 -0.000000      2.000000
  0.250000  0.250000 -0.000000      2.000000
  0.500000  0.250000 -0.000000      2.000000
 -0.250000  0.250000  0.000000      2.000000
  0.000000  0.500000 -0.000000      1.000000
  0.250000  0.500000  0.000000      2.000000
  0.500000  0.500000 -0.000000      1.000000
 -0.000000  0.000000  0.333333      2.000000
  0.250000  0.000000  0.333333      2.000000
  0.500000  0.000000  0.333333      2.000000
 -0.250000 -0.000000  0.333333      2.000000
  0.000000  0.250000  0.333333      2.000000
  0.250000  0.250000  0.333333      2.000000
  0.500000  0.250000  0.333333      2.000000
 -0.250000  0.250000  0.333333      2.000000
 -0.000000  0.500000  0.333333      2.000000
  0.250000  0.500000  0.333333      2.000000
  0.500000  0.500000  0.333333      2.000000
 -0.250000  0.500000  0.333333      2.000000
  0.000000 -0.250000  0.333333      2.000000
  0.250000 -0.250000  0.333333      2.000000
  0.500000 -0.250000  0.333333      2.000000
 -0.250000 -0.250000  0.333333      2.000000
 
 Following cartesian coordinates:
            Coordinates               Weight
  0.000000  0.000000  0.000000      1.000000
  0.025336 -0.000070 -0.000001      2.000000
  0.050672 -0.000140 -0.000002      1.000000
 -0.000107  0.045870 -0.000018      2.000000
  0.025229  0.045799 -0.000020      2.000000
  0.050565  0.045729 -0.000021      2.000000
 -0.025444  0.045940 -0.000017      2.000000
 -0.000215  0.091739 -0.000037      1.000000
  0.025121  0.091669 -0.000038      2.000000
  0.050458  0.091599 -0.000039      1.000000
  0.000008  0.000016  0.053253      2.000000
  0.025344 -0.000054  0.053252      2.000000
  0.050681 -0.000124  0.053251      2.000000
 -0.025328  0.000086  0.053254      2.000000
 -0.000099  0.045886  0.053235      2.000000
  0.025237  0.045815  0.053233      2.000000
  0.050573  0.045745  0.053232      2.000000
 -0.025435  0.045956  0.053236      2.000000
 -0.000207  0.091755  0.053216      2.000000
  0.025130  0.091685  0.053215      2.000000
  0.050466  0.091615  0.053214      2.000000
 -0.025543  0.091825  0.053217      2.000000
  0.000116 -0.045853  0.053271      2.000000
  0.025452 -0.045924  0.053270      2.000000
  0.050788 -0.045994  0.053269      2.000000
 -0.025221 -0.045783  0.053273      2.000000
 


--------------------------------------------------------------------------------------------------------




 Dimension of arrays:
   k-points           NKPTS =     26   k-points in BZ     NKDIM =     26   number of bands    NBANDS=    104
   number of dos      NEDOS =    301   number of ions     NIONS =     33
   non local maximal  LDIM  =      6   non local SUM 2l+1 LMDIM =     18
   total plane-waves  NPLWV =  86400
   max r-space proj   IRMAX =   4133   max aug-charges    IRDMAX=  15763
   dimension x,y,z NGX =    60 NGY =   36 NGZ =   40
   dimension x,y,z NGXF=   120 NGYF=   72 NGZF=   80
   support grid    NGXF=   120 NGYF=   72 NGZF=   80
   ions per type =              13   4  16
 NGX,Y,Z   is equivalent  to a cutoff of  10.11, 10.98, 10.62 a.u.
 NGXF,Y,Z  is equivalent  to a cutoff of  20.22, 21.96, 21.25 a.u.


 I would recommend the setting:
   dimension x,y,z NGX =    59 NGY =   33 NGZ =   38
 SYSTEM =  unknown system                          
 POSCAR =  Li  V  O                                

 Startparameter for this run:
   NWRITE =      2    write-flag & timer
   PREC   = normal    normal or accurate (medium, high low for compatibility)
   ISTART =      0    job   : 0-new  1-cont  2-samecut
   ICHARG =      2    charge: 1-file 2-atom 10-const
   ISPIN  =      2    spin polarized calculation?
   LNONCOLLINEAR =      F non collinear calculations
   LSORBIT =      F    spin-orbit coupling
   INIWAV =      1    electr: 0-lowe 1-rand  2-diag
   LASPH  =      F    aspherical Exc in radial PAW
   METAGGA=      F    non-selfconsistent MetaGGA calc.

 Electronic Relaxation 1
   ENCUT  =  600.0 eV  44.10 Ry    6.64 a.u.  19.71 10.89 12.50*2*pi/ulx,y,z
   ENINI  =  600.0     initial cutoff
   ENAUG  =  605.4 eV  augmentation charge cutoff
   NELM   =    500;   NELMIN=  2; NELMDL=  0     # of ELM steps 
   EDIFF  = 0.1E-05   stopping-criterion for ELM
   LREAL  =      T    real-space projection
   NLSPLINE    = F    spline interpolate recip. space projectors
   LCOMPAT=      F    compatible to vasp.4.4
   GGA_COMPAT  = T    GGA compatible to vasp.4.4-vasp.4.6
   LMAXPAW     = -100 max onsite density
   LMAXMIX     =    4 max onsite mixed and CHGCAR
   VOSKOWN=      0    Vosko Wilk Nusair interpolation
   ROPT   =   -0.00050  -0.00050  -0.00050
 Ionic relaxation
   EDIFFG = -.1E-01   stopping-criterion for IOM
   NSW    =    500    number of steps for IOM
   NBLOCK =      1;   KBLOCK =    500    inner block; outer block 
   IBRION =      2    ionic relax: 0-MD 1-quasi-New 2-CG
   NFREE  =      1    steps in history (QN), initial steepest desc. (CG)
   ISIF   =      3    stress and relaxation
   IWAVPR =     11    prediction:  0-non 1-charg 2-wave 3-comb
   ISYM   =      2    0-nonsym 1-usesym 2-fastsym
   LCORR  =      T    Harris-Foulkes like correction to forces

   POTIM  = 0.5000    time-step for ionic-motion
   TEIN   =    0.0    initial temperature
   TEBEG  =    0.0;   TEEND  =   0.0 temperature during run
   SMASS  =  -3.00    Nose mass-parameter (am)
   estimated Nose-frequenzy (Omega)   =  0.10E-29 period in steps =****** mass=  -0.223E-26a.u.
   SCALEE = 1.0000    scale energy and forces
   NPACO  =    256;   APACO  = 16.0  distance and # of slots for P.C.
   PSTRESS=    0.0 pullay stress

  Mass of Ions in am
   POMASS =   7.01 50.94 16.00
  Ionic Valenz
   ZVAL   =   1.00  5.00  6.00
  Atomic Wigner-Seitz radii
   RWIGS  =  -1.00 -1.00 -1.00
  virtual crystal weights 
   VCA    =   1.00  1.00  1.00
   NELECT =     129.0000    total number of electrons
   NUPDOWN=      -1.0000    fix difference up-down

 DOS related values:
   EMIN   =  10.00;   EMAX   =-10.00  energy-range for DOS
   EFERMI =   0.00
   ISMEAR =     0;   SIGMA  =   0.03  broadening in eV -4-tet -1-fermi 0-gaus

 Electronic relaxation 2 (details)
   IALGO  =     48    algorithm
   LDIAG  =      T    sub-space diagonalisation (order eigenvalues)
   LSUBROT=      F    optimize rotation matrix (better conditioning)
   TURBO    =      0    0=normal 1=particle mesh
   IRESTART =      0    0=no restart 2=restart with 2 vectors
   NREBOOT  =      0    no. of reboots
   NMIN     =      0    reboot dimension
   EREF     =   0.00    reference energy to select bands
   IMIX   =      4    mixing-type and parameters
     AMIX     =   0.40;   BMIX     =  1.00
     AMIX_MAG =   1.60;   BMIX_MAG =  1.00
     AMIN     =   0.10
     WC   =   100.;   INIMIX=   1;  MIXPRE=   1;  MAXMIX= -45

 Intra band minimization:
   WEIMIN = 0.0010     energy-eigenvalue tresh-hold
   EBREAK =  0.24E-08  absolut break condition
   DEPER  =   0.30     relativ break condition  

   TIME   =   0.40     timestep for ELM

  volume/ion in A,a.u.               =      10.20        68.84
  Fermi-wavevector in a.u.,A,eV,Ry     =   1.189107  2.247087 19.238312  1.413976
  Thomas-Fermi vector in A             =   2.325222
 
 Write flags
   LWAVE  =      F    write WAVECAR
   LCHARG =      F    write CHGCAR
   LVTOT  =      F    write LOCPOT, total local potential
   LVHAR  =      F    write LOCPOT, Hartree potential only
   LELF   =      F    write electronic localiz. function (ELF)
   LORBIT =      0    0 simple, 1 ext, 2 COOP (PROOUT)


 Dipole corrections
   LMONO  =      F    monopole corrections only (constant potential shift)
   LDIPOL =      F    correct potential (dipole corrections)
   IDIPOL =      0    1-x, 2-y, 3-z, 4-all directions 
   EPSILON=  1.0000000 bulk dielectric constant

 LDA+U is selected, type is set to LDAUTYPE =  2
   angular momentum for each species LDAUL =    -1    2   -1
   U (eV)           for each species LDAUU =   0.0  3.0  0.0
   J (eV)           for each species LDAUJ =   0.0  0.0  0.0
 Exchange correlation treatment:
   GGA     =    PE    GGA type
   LEXCH   =     8    internal setting for exchange type
   VOSKOWN=      0    Vosko Wilk Nusair interpolation
   LHFCALC =     F    Hartree Fock is set to
   LHFONE  =     F    Hartree Fock one center treatment
   AEXX    =    0.0000 exact exchange contribution

 Linear response parameters
   LEPSILON=     F    determine dielectric tensor
   LRPA    =     F    only Hartree local field effects (RPA)
   LNABLA  =     F    use nabla operator in PAW spheres
   LVEL    =     F    velocity operator in full k-point grid
   LINTERFAST=   F  fast interpolation
   KINTER  =     0    interpolate to denser k-point grid
   CSHIFT  =0.1000    complex shift for real part using Kramers Kronig
   OMEGAMAX=  -1.0    maximum frequency
   DEG_THRESHOLD= 0.2000000E-02 threshold for treating states as degnerate
   RTIME   =    0.100 relaxation time in fs

 Orbital magnetization related:
   ORBITALMAG=     F  switch on orbital magnetization
   LCHIMAG   =     F  perturbation theory with respect to B field
   DQ        =  0.001000  dq finite difference perturbation B field



--------------------------------------------------------------------------------------------------------


 conjugate gradient relaxation of ions
 charge density and potential will be updated during run
 spin polarized calculation
 RMM-DIIS sequential band-by-band
 perform sub-space diagonalisation
    before iterative eigenvector-optimisation
 modified Broyden-mixing scheme, WC =      100.0
 initial mixing is a Kerker type mixing with AMIX =  0.4000 and BMIX =      1.0000
 Hartree-type preconditioning will be used
 using additional bands           39
 real space projection scheme for non local part
 use partial core corrections
 calculate Harris-corrections to forces 
   (improved forces if not selfconsistent)
 use gradient corrections 
 use of overlap-Matrix (Vanderbilt PP)
 Gauss-broadening in eV      SIGMA  =   0.03


--------------------------------------------------------------------------------------------------------


  energy-cutoff  :      600.00
  volume of cell :      336.63
      direct lattice vectors                 reciprocal lattice vectors
     9.867354178  0.023096466 -0.001518543     0.101344946 -0.000280869 -0.000004984
     0.015104915  5.450277915 -0.001642267    -0.000429477  0.183478050 -0.000073759
     0.000314824  0.002517070  6.259426196     0.000024474  0.000048070  0.159759032

  length of vectors
     9.867381325  5.450299094  6.259426710     0.101345336  0.183478568  0.159759041


 
 k-points in units of 2pi/SCALE and weight: KPOINTS created by Atomic Simulation Env
   0.00000000  0.00000000  0.00000000       0.021
   0.02533624 -0.00007022 -0.00000125       0.042
   0.05067247 -0.00014043 -0.00000249       0.021
  -0.00010737  0.04586951 -0.00001844       0.042
   0.02522887  0.04579930 -0.00001969       0.042
   0.05056510  0.04572908 -0.00002093       0.042
  -0.02544361  0.04593973 -0.00001719       0.042
  -0.00021474  0.09173903 -0.00003688       0.021
   0.02512150  0.09166881 -0.00003813       0.042
   0.05045773  0.09159859 -0.00003937       0.021
   0.00000816  0.00001602  0.05325301       0.042
   0.02534439 -0.00005419  0.05325176       0.042
   0.05068063 -0.00012441  0.05325052       0.042
  -0.02532808  0.00008624  0.05325426       0.042
  -0.00009921  0.04588554  0.05323457       0.042
   0.02523703  0.04581532  0.05323332       0.042
   0.05057326  0.04574510  0.05323208       0.042
  -0.02543545  0.04595575  0.05323582       0.042
  -0.00020658  0.09175505  0.05321613       0.042
   0.02512966  0.09168483  0.05321488       0.042
   0.05046589  0.09161461  0.05321364       0.042
  -0.02554282  0.09182527  0.05321738       0.042
   0.00011553 -0.04585349  0.05327145       0.042
   0.02545176 -0.04592371  0.05327020       0.042
   0.05078800 -0.04599392  0.05326896       0.042
  -0.02522071 -0.04578327  0.05327270       0.042
 
 k-points in reciprocal lattice and weights: KPOINTS created by Atomic Simulation Env
   0.00000000  0.00000000  0.00000000       0.021
   0.25000000 -0.00000000 -0.00000000       0.042
   0.50000000 -0.00000000 -0.00000000       0.021
   0.00000000  0.25000000 -0.00000000       0.042
   0.25000000  0.25000000 -0.00000000       0.042
   0.50000000  0.25000000 -0.00000000       0.042
  -0.25000000  0.25000000  0.00000000       0.042
   0.00000000  0.50000000 -0.00000000       0.021
   0.25000000  0.50000000  0.00000000       0.042
   0.50000000  0.50000000 -0.00000000       0.021
  -0.00000000  0.00000000  0.33333333       0.042
   0.25000000  0.00000000  0.33333333       0.042
   0.50000000  0.00000000  0.33333333       0.042
  -0.25000000 -0.00000000  0.33333333       0.042
   0.00000000  0.25000000  0.33333333       0.042
   0.25000000  0.25000000  0.33333333       0.042
   0.50000000  0.25000000  0.33333333       0.042
  -0.25000000  0.25000000  0.33333333       0.042
  -0.00000000  0.50000000  0.33333333       0.042
   0.25000000  0.50000000  0.33333333       0.042
   0.50000000  0.50000000  0.33333333       0.042
  -0.25000000  0.50000000  0.33333333       0.042
   0.00000000 -0.25000000  0.33333333       0.042
   0.25000000 -0.25000000  0.33333333       0.042
   0.50000000 -0.25000000  0.33333333       0.042
  -0.25000000 -0.25000000  0.33333333       0.042
 
 position of ions in fractional coordinates (direct lattice) 
   0.00909507  0.66043698  0.26120155
   0.24807688  0.33622191  0.25483520
   0.24801786  0.33625396  0.76478469
   0.00908727  0.66055708  0.75813094
   0.99738886  0.15703509  0.50957672
   0.25887220  0.81347612  0.00983351
   0.40561679  0.48008929  0.50990133
   0.50705969  0.68041276  0.23430894
   0.75331024  0.32199891  0.26092177
   0.75326079  0.32203648  0.75860633
   0.50708087  0.68041047  0.78529471
   0.52002446  0.12107886  0.50983199
   0.76213988  0.82582444  0.00983733
   0.50003135  0.17650179  0.00982955
   0.24741259  0.85742352  0.50982941
   0.99956517  0.15987927  0.00965000
   0.75186977  0.80878755  0.50983681
   0.05313876  0.31228423  0.23805048
   0.32605002  0.16514641  0.00994634
   0.05303380  0.31228459  0.78118090
   0.31429390  0.66929124  0.28455584
   0.31427375  0.66932000  0.73519376
   0.32062378  0.16209473  0.50992890
   0.05543477  0.85780218  0.00971905
   0.06821715  0.82679853  0.50968672
   0.55268909  0.32725465  0.24182205
   0.82371735  0.16269792  0.00978335
   0.55262312  0.32710386  0.77769898
   0.80800969  0.66290662  0.28052480
   0.80799567  0.66309817  0.73928375
   0.79348263  0.11851761  0.50976451
   0.56452436  0.87939468  0.00983306
   0.57524772  0.78872822  0.50984380
 
 position of ions in cartesian coordinates  (Angst):
   0.09980236  3.60043264  1.63387339
   2.45302124  1.83887397  1.59419323
   2.45259990  1.84033087  4.78618450
   0.09988367  3.60233780  4.74436604
   9.84412160  0.88020369  3.18788539
   2.56667422  4.43967471  0.05982306
   4.00977679  2.62727180  3.19028538
   5.01368893  3.72073968  1.46475213
   7.43812490  1.77303912  1.63154781
   7.43779420  1.77449543  4.74676760
   5.01407130  3.72211457  4.91360685
   5.13325495  0.67320742  3.19026720
   7.53278122  4.51860022  0.05906247
   4.93665556  0.97355749  0.06047816
   2.45441950  4.68019408  3.18945576
   9.86548160  0.89449718  0.05862299
   7.43134247  4.42676574  3.18881588
   0.52913093  1.70386234  1.48946587
   3.21974864  0.90764945  0.06149206
   0.52826628  1.70522900  4.88915077
   3.11144837  3.65579856  1.77957986
   3.11139187  3.65708916  4.60031461
   3.16631739  0.89215015  3.19110925
   0.55995465  4.67656509  0.05934276
   0.68577201  4.50914026  3.18888501
   5.45859827  1.79700262  1.51229055
   8.13037142  0.90579844  0.05972009
   5.45811378  1.79752811  4.86657301
   7.98301922  3.63239360  1.75360860
   7.98302821  3.63459201  4.62517613
   7.83152486  0.66556367  3.18943378
   5.58364809  4.80600869  0.05924786
   5.68824716  4.31335750  3.18916079
 


--------------------------------------------------------------------------------------------------------


 k-point  1 :   0.0000 0.0000 0.0000  plane waves:   11261
 k-point  2 :   0.2500-0.0000-0.0000  plane waves:   11214
 k-point  3 :   0.5000-0.0000-0.0000  plane waves:   11232
 k-point  4 :   0.0000 0.2500-0.0000  plane waves:   11260
 k-point  5 :   0.2500 0.2500-0.0000  plane waves:   11264
 k-point  6 :   0.5000 0.2500-0.0000  plane waves:   11251
 k-point  7 :  -0.2500 0.2500 0.0000  plane waves:   11244
 k-point  8 :   0.0000 0.5000-0.0000  plane waves:   11258
 k-point  9 :   0.2500 0.5000 0.0000  plane waves:   11251
 k-point 10 :   0.5000 0.5000-0.0000  plane waves:   11244
 k-point 11 :  -0.0000 0.0000 0.3333  plane waves:   11225
 k-point 12 :   0.2500 0.0000 0.3333  plane waves:   11216
 k-point 13 :   0.5000 0.0000 0.3333  plane waves:   11208
 k-point 14 :  -0.2500-0.0000 0.3333  plane waves:   11219
 k-point 15 :   0.0000 0.2500 0.3333  plane waves:   11230
 k-point 16 :   0.2500 0.2500 0.3333  plane waves:   11231
 k-point 17 :   0.5000 0.2500 0.3333  plane waves:   11240
 k-point 18 :  -0.2500 0.2500 0.3333  plane waves:   11225
 k-point 19 :  -0.0000 0.5000 0.3333  plane waves:   11249
 k-point 20 :   0.2500 0.5000 0.3333  plane waves:   11246
 k-point 21 :   0.5000 0.5000 0.3333  plane waves:   11252
 k-point 22 :  -0.2500 0.5000 0.3333  plane waves:   11247
 k-point 23 :   0.0000-0.2500 0.3333  plane waves:   11230
 k-point 24 :   0.2500-0.2500 0.3333  plane waves:   11227
 k-point 25 :   0.5000-0.2500 0.3333  plane waves:   11238
 k-point 26 :  -0.2500-0.2500 0.3333  plane waves:   11233

 maximum and minimum number of plane-waves per node :      1448     1339

 maximum number of plane-waves:     11264
 maximum index in each direction: 
   IXMAX=   19   IYMAX=   11   IZMAX=   12
   IXMIN=  -20   IYMIN=  -11   IZMIN=  -12

 WARNING: aliasing errors must be expected set NGX to  80 to avoid them
 WARNING: aliasing errors must be expected set NGY to  46 to avoid them
 WARNING: aliasing errors must be expected set NGZ to  50 to avoid them
 aliasing errors are usually negligible using standard VASP settings
 and one can safely disregard these warnings

 real space projection operators:
  total allocation   :       4490.25 KBytes
  max/ min on nodes  :        615.34        509.62


 parallel 3D FFT for wavefunctions:
    minimum data exchange during FFTs selected (reduces bandwidth)
 parallel 3D FFT for charge:
    minimum data exchange during FFTs selected (reduces bandwidth)


 total amount of memory used by VASP on root node    51656. kBytes
========================================================================

   base      :      30000. kBytes
   nonlr-proj:       3035. kBytes
   fftplans  :        753. kBytes
   grid      :       1965. kBytes
   one-center:        155. kBytes
   wavefun   :      15748. kBytes
 
     INWAV:  cpu time    0.0000: real time    0.0000
 Broyden mixing: mesh for mixing (old mesh)
   NGX = 39   NGY = 21   NGZ = 25
  (NGX  =120   NGY  = 72   NGZ  = 80)
  gives a total of  20475 points

 initial charge density was supplied:
 charge density of overlapping atoms calculated
 number of electron     129.0000000 magnetization      33.0000000
 keeping initial charge density in first step


--------------------------------------------------------------------------------------------------------


 Maximum index for non-local projection operator          665
 Maximum index for augmentation-charges          773 (set IRDMAX)


--------------------------------------------------------------------------------------------------------


 First call to EWALD:  gamma=   0.255
 Maximum number of real-space cells 2x 3x 3
 Maximum number of reciprocal cells 4x 2x 3

 FEWALD executed in parallel
    FEWALD:  cpu time    0.0015: real time    0.0015


----------------------------------------- Iteration    1(   1)  ---------------------------------------


    POTLOK:  cpu time    0.0150: real time    0.0158
    SETDIJ:  cpu time    0.0052: real time    0.0053
    EDDIAG:  cpu time    0.7512: real time    0.7584
  RMM-DIIS:  cpu time    0.4247: real time    0.4285
    ORTHCH:  cpu time    0.1828: real time    0.1839
       DOS:  cpu time    0.0021: real time    0.0021
    --------------------------------------------
      LOOP:  cpu time    1.3853: real time    1.3989

 eigenvalue-minimisations  :  5408
 total energy-change (2. order) : 0.1727585E+04  (-0.4591356E+04)
 number of electron     129.0000000 magnetization      33.0000000
 augmentation part      129.0000000 magnetization      33.0000000

 Free energy of the ion-electron system (eV)
  ---------------------------------------------------
  alpha Z        PSCENC =       250.07506522
  Ewald energy   TEWEN  =     -5328.43853013
  -Hartree energ DENC   =     -2387.36732630
  -exchange      EXHF   =         0.00000000
  -V(xc)+E(xc)   XCENC  =       208.73592066
  PAW double counting   =      6464.99996438    -6216.90839793
  entropy T*S    EENTRO =        -0.00950544
  eigenvalues    EBANDS =      1066.33432148
  atomic energy  EATOM  =      7670.16376216
  Solvation  Ediel_sol  =         0.00000000
  ---------------------------------------------------
  free energy    TOTEN  =      1727.58527412 eV

  energy without entropy =     1727.59477956  energy(sigma->0) =     1727.59002684


--------------------------------------------------------------------------------------------------------




----------------------------------------- Iteration    1(   2)  ---------------------------------------


    EDDIAG:  cpu time    0.7272: real time    0.7322
  RMM-DIIS:  cpu time    0.4249: real time    0.4276
    ORTHCH:  cpu time    0.1827: real time    0.1837
       DOS:  cpu time    0.0022: real time    0.0022
    --------------------------------------------
      LOOP:  cpu time    1.3382: real time    1.3596

 eigenvalue-minimisations  :  5408
 total energy-change (2. order) :-0.1222868E+04  (-0.1153772E+04)
 number of electron     129.0000000 magnetization      33.0000000
 augmentation part      129.0000000 magnetization      33.0000000

 Free energy of the ion-electron system (eV)
  ---------------------------------------------------
  alpha Z        PSCENC =       250.07506522
  Ewald energy   TEWEN  =     -5328.43853013
  -Hartree energ DENC   =     -2387.36732630
  -exchange      EXHF   =         0.00000000
  -V(xc)+E(xc)   XCENC  =       208.73592066
  PAW double counting   =      6464.99996438    -6216.90839793
  entropy T*S    EENTRO =        -0.00553779
  eigenvalues    EBANDS =      -156.53727243
  atomic energy  EATOM  =      7670.16376216
  Solvation  Ediel_sol  =         0.00000000
  ---------------------------------------------------
  free energy    TOTEN  =       504.71764786 eV

  energy without entropy =      504.72318565  energy(sigma->0) =      504.72041675


--------------------------------------------------------------------------------------------------------




----------------------------------------- Iteration    1(   3)  ---------------------------------------


    EDDIAG:  cpu time    0.7252: real time    0.7301
  RMM-DIIS:  cpu time    0.4204: real time    0.4229
    ORTHCH:  cpu time    0.1837: real time    0.1847
       DOS:  cpu time    0.0021: real time    0.0021
    --------------------------------------------
      LOOP:  cpu time    1.3328: real time    1.3536

 eigenvalue-minimisations  :  5408
 total energy-change (2. order) :-0.3769062E+03  (-0.3357971E+03)
 number of electron     129.0000000 magnetization      33.0000000
 augmentation part      129.0000000 magnetization      33.0000000

 Free energy of the ion-electron system (eV)
  ---------------------------------------------------
  alpha Z        PSCENC =       250.07506522
  Ewald energy   TEWEN  =     -5328.43853013
  -Hartree energ DENC   =     -2387.36732630
  -exchange      EXHF   =         0.00000000
  -V(xc)+E(xc)   XCENC  =       208.73592066
  PAW double counting   =      6464.99996438    -6216.90839793
  entropy T*S    EENTRO =        -0.00498156
  eigenvalues    EBANDS =      -533.44397950
  atomic energy  EATOM  =      7670.16376216
  Solvation  Ediel_sol  =         0.00000000
  ---------------------------------------------------
  free energy    TOTEN  =       127.81149701 eV

  energy without entropy =      127.81647858  energy(sigma->0) =      127.81398780


--------------------------------------------------------------------------------------------------------




----------------------------------------- Iteration    1(   4)  ---------------------------------------


    EDDIAG:  cpu time    0.7291: real time    0.7340
  RMM-DIIS:  cpu time    0.4213: real time    0.4243
    ORTHCH:  cpu time    0.1829: real time    0.1839
       DOS:  cpu time    0.0021: real time    0.0021
    --------------------------------------------
      LOOP:  cpu time    1.3366: real time    1.3569

 eigenvalue-minimisations  :  5408
 total energy-change (2. order) :-0.1868488E+03  (-0.1114119E+03)
 number of electron     129.0000000 magnetization      33.0000000
 augmentation part      129.0000000 magnetization      33.0000000

 Free energy of the ion-electron system (eV)
  ---------------------------------------------------
  alpha Z        PSCENC =       250.07506522
  Ewald energy   TEWEN  =     -5328.43853013
  -Hartree energ DENC   =     -2387.36732630
  -exchange      EXHF   =         0.00000000
  -V(xc)+E(xc)   XCENC  =       208.73592066
  PAW double counting   =      6464.99996438    -6216.90839793
  entropy T*S    EENTRO =        -0.00394722
  eigenvalues    EBANDS =      -720.29385517
  atomic energy  EATOM  =      7670.16376216
  Solvation  Ediel_sol  =         0.00000000
  ---------------------------------------------------
  free energy    TOTEN  =       -59.03734431 eV

  energy without entropy =      -59.03339709  energy(sigma->0) =      -59.03537070


--------------------------------------------------------------------------------------------------------




----------------------------------------- Iteration    1(   5)  ---------------------------------------


    EDDIAG:  cpu time    0.7421: real time    0.7471
  RMM-DIIS:  cpu time    0.4208: real time    0.4233
    ORTHCH:  cpu time    0.1834: real time    0.1844
       DOS:  cpu time    0.0021: real time    0.0021
    --------------------------------------------
      LOOP:  cpu time    1.3496: real time    1.3715

 eigenvalue-minimisations  :  5408
 total energy-change (2. order) :-0.9900097E+02  (-0.7070662E+02)
 number of electron     129.0000000 magnetization      33.0000000
 augmentation part      129.0000000 magnetization      33.0000000

 Free energy of the ion-electron system (eV)
  ---------------------------------------------------
  alpha Z        PSCENC =       250.07506522
  Ewald energy   TEWEN  =     -5328.43853013
  -Hartree energ DENC   =     -2387.36732630
  -exchange      EXHF   =         0.00000000
  -V(xc)+E(xc)   XCENC  =       208.73592066
  PAW double counting   =      6464.99996438    -6216.90839793
  entropy T*S    EENTRO =        -0.00366572
  eigenvalues    EBANDS =      -819.29510374
  atomic energy  EATOM  =      7670.16376216
  Solvation  Ediel_sol  =         0.00000000
  ---------------------------------------------------
  free energy    TOTEN  =      -158.03831139 eV

  energy without entropy =     -158.03464567  energy(sigma->0) =     -158.03647853


--------------------------------------------------------------------------------------------------------




----------------------------------------- Iteration    1(   6)  ---------------------------------------


    EDDIAG:  cpu time    0.7234: real time    0.7282
  RMM-DIIS:  cpu time    0.4201: real time    0.4228
    ORTHCH:  cpu time    0.1821: real time    0.1831
       DOS:  cpu time    0.0021: real time    0.0021
    --------------------------------------------
      LOOP:  cpu time    1.3290: real time    1.3534

 eigenvalue-minimisations  :  5408
 total energy-change (2. order) :-0.4452360E+02  (-0.2927555E+02)
 number of electron     129.0000000 magnetization      33.0000000
 augmentation part      129.0000000 magnetization      33.0000000

 Free energy of the ion-electron system (eV)
  ---------------------------------------------------
  alpha Z        PSCENC =       250.07506522
  Ewald energy   TEWEN  =     -5328.43853013
  -Hartree energ DENC   =     -2387.36732630
  -exchange      EXHF   =         0.00000000
  -V(xc)+E(xc)   XCENC  =       208.73592066
  PAW double counting   =      6464.99996438    -6216.90839793
  entropy T*S    EENTRO =        -0.00362459
  eigenvalues    EBANDS =      -863.81874684
  atomic energy  EATOM  =      7670.16376216
  Solvation  Ediel_sol  =         0.00000000
  ---------------------------------------------------
  free energy    TOTEN  =      -202.56191335 eV

  energy without entropy =     -202.55828877  energy(sigma->0) =     -202.56010106


--------------------------------------------------------------------------------------------------------




----------------------------------------- Iteration    1(   7)  ---------------------------------------


    EDDIAG:  cpu time    0.7303: real time    0.7353
  RMM-DIIS:  cpu time    0.4216: real time    0.4243
    ORTHCH:  cpu time    0.1830: real time    0.1841
       DOS:  cpu time    0.0020: real time    0.0021
    --------------------------------------------
      LOOP:  cpu time    1.3383: real time    1.3593

 eigenvalue-minimisations  :  5408
 total energy-change (2. order) :-0.2469761E+02  (-0.1806627E+02)
 number of electron     129.0000000 magnetization      33.0000000
 augmentation part      129.0000000 magnetization      33.0000000

 Free energy of the ion-electron system (eV)
  ---------------------------------------------------
  alpha Z        PSCENC =       250.07506522
  Ewald energy   TEWEN  =     -5328.43853013
  -Hartree energ DENC   =     -2387.36732630
  -exchange      EXHF   =         0.00000000
  -V(xc)+E(xc)   XCENC  =       208.73592066
  PAW double counting   =      6464.99996438    -6216.90839793
  entropy T*S    EENTRO =        -0.00083185
  eigenvalues    EBANDS =      -888.51915052
  atomic energy  EATOM  =      7670.16376216
  Solvation  Ediel_sol  =         0.00000000
  ---------------------------------------------------
  free energy    TOTEN  =      -227.25952429 eV

  energy without entropy =     -227.25869244  energy(sigma->0) =     -227.25910837


--------------------------------------------------------------------------------------------------------




----------------------------------------- Iteration    1(   8)  ---------------------------------------


    EDDIAG:  cpu time    0.7231: real time    0.7281
  RMM-DIIS:  cpu time    0.4199: real time    0.4227
    ORTHCH:  cpu time    0.1904: real time    0.1916
       DOS:  cpu time    0.0024: real time    0.0024
    --------------------------------------------
      LOOP:  cpu time    1.3370: real time    1.3583

 eigenvalue-minimisations  :  5408
 total energy-change (2. order) :-0.1129876E+02  (-0.7917832E+01)
 number of electron     129.0000000 magnetization      33.0000000
 augmentation part      129.0000000 magnetization      33.0000000

 Free energy of the ion-electron system (eV)
  ---------------------------------------------------
  alpha Z        PSCENC =       250.07506522
  Ewald energy   TEWEN  =     -5328.43853013
  -Hartree energ DENC   =     -2387.36732630
  -exchange      EXHF   =         0.00000000
  -V(xc)+E(xc)   XCENC  =       208.73592066
  PAW double counting   =      6464.99996438    -6216.90839793
  entropy T*S    EENTRO =        -0.00099140
  eigenvalues    EBANDS =      -899.81774757
  atomic energy  EATOM  =      7670.16376216
  Solvation  Ediel_sol  =         0.00000000
  ---------------------------------------------------
  free energy    TOTEN  =      -238.55828090 eV

  energy without entropy =     -238.55728950  energy(sigma->0) =     -238.55778520


--------------------------------------------------------------------------------------------------------




----------------------------------------- Iteration    1(   9)  ---------------------------------------


    EDDIAG:  cpu time    0.7330: real time    0.7380
  RMM-DIIS:  cpu time    0.9921: real time    0.9989
    ORTHCH:  cpu time    0.1831: real time    0.1841
       DOS:  cpu time    0.0020: real time    0.0021
    --------------------------------------------
      LOOP:  cpu time    1.9114: real time    1.9364

 eigenvalue-minimisations  : 14200
 total energy-change (2. order) :-0.1339885E+02  (-0.1184993E+02)
 number of electron     129.0000000 magnetization      33.0000000
 augmentation part      129.0000000 magnetization      33.0000000

 Free energy of the ion-electron system (eV)
  ---------------------------------------------------
  alpha Z        PSCENC =       250.07506522
  Ewald energy   TEWEN  =     -5328.43853013
  -Hartree energ DENC   =     -2387.36732630
  -exchange      EXHF   =         0.00000000
  -V(xc)+E(xc)   XCENC  =       208.73592066
  PAW double counting   =      6464.99996438    -6216.90839793
  entropy T*S    EENTRO =        -0.00051043
  eigenvalues    EBANDS =      -913.21707919
  atomic energy  EATOM  =      7670.16376216
  Solvation  Ediel_sol  =         0.00000000
  ---------------------------------------------------
  free energy    TOTEN  =      -251.95713154 eV

  energy without entropy =     -251.95662111  energy(sigma->0) =     -251.95687633


--------------------------------------------------------------------------------------------------------




----------------------------------------- Iteration    1(  10)  ---------------------------------------


    EDDIAG:  cpu time    0.7208: real time    0.7259
  RMM-DIIS:  cpu time    0.9896: real time    0.9959
    ORTHCH:  cpu time    0.1839: real time    0.1850
       DOS:  cpu time    0.0021: real time    0.0021
    --------------------------------------------
      LOOP:  cpu time    1.8978: real time    1.9224

 eigenvalue-minimisations  : 14198
 total energy-change (2. order) :-0.2998432E+00  (-0.2415131E+00)
 number of electron     129.0000000 magnetization      33.0000000
 augmentation part      129.0000000 magnetization      33.0000000

 Free energy of the ion-electron system (eV)
  ---------------------------------------------------
  alpha Z        PSCENC =       250.07506522
  Ewald energy   TEWEN  =     -5328.43853013
  -Hartree energ DENC   =     -2387.36732630
  -exchange      EXHF   =         0.00000000
  -V(xc)+E(xc)   XCENC  =       208.73592066
  PAW double counting   =      6464.99996438    -6216.90839793
  entropy T*S    EENTRO =        -0.00087677
  eigenvalues    EBANDS =      -913.51655603
  atomic energy  EATOM  =      7670.16376216
  Solvation  Ediel_sol  =         0.00000000
  ---------------------------------------------------
  free energy    TOTEN  =      -252.25697472 eV

  energy without entropy =     -252.25609795  energy(sigma->0) =     -252.25653634


--------------------------------------------------------------------------------------------------------




----------------------------------------- Iteration    1(  11)  ---------------------------------------


    EDDIAG:  cpu time    0.7223: real time    0.7271
  RMM-DIIS:  cpu time    0.9800: real time    0.9865
    ORTHCH:  cpu time    0.1839: real time    0.1850
       DOS:  cpu time    0.0021: real time    0.0021
    --------------------------------------------
      LOOP:  cpu time    1.8898: real time    1.9146

 eigenvalue-minimisations  : 14143
 total energy-change (2. order) :-0.2077008E-01  (-0.1314195E-01)
 number of electron     129.0000000 magnetization      33.0000000
 augmentation part      129.0000000 magnetization      33.0000000

 Free energy of the ion-electron system (eV)
  ---------------------------------------------------
  alpha Z        PSCENC =       250.07506522
  Ewald energy   TEWEN  =     -5328.43853013
  -Hartree energ DENC   =     -2387.36732630
  -exchange      EXHF   =         0.00000000
  -V(xc)+E(xc)   XCENC  =       208.73592066
  PAW double counting   =      6464.99996438    -6216.90839793
  entropy T*S    EENTRO =        -0.00125714
  eigenvalues    EBANDS =      -913.53694574
  atomic energy  EATOM  =      7670.16376216
  Solvation  Ediel_sol  =         0.00000000
  ---------------------------------------------------
  free energy    TOTEN  =      -252.27774480 eV

  energy without entropy =     -252.27648767  energy(sigma->0) =     -252.27711623


--------------------------------------------------------------------------------------------------------




----------------------------------------- Iteration    1(  12)  ---------------------------------------


    EDDIAG:  cpu time    0.7394: real time    0.7445
  RMM-DIIS:  cpu time    0.8839: real time    0.8901
    ORTHCH:  cpu time    0.1832: real time    0.1844
       DOS:  cpu time    0.0021: real time    0.0021
    CHARGE:  cpu time    0.0560: real time    0.0563
    MIXING:  cpu time    0.0007: real time    0.0007
    --------------------------------------------
      LOOP:  cpu time    1.8667: real time    1.8918

 eigenvalue-minimisations  : 12885
 total energy-change (2. order) :-0.3353797E-02  (-0.2629837E-02)
 number of electron     129.0000011 magnetization      18.2288882
 augmentation part       14.7451376 magnetization      17.2909187

 Broyden mixing:
  rms(total) = 0.95142E+01    rms(broyden)= 0.95140E+01
  rms(prec ) = 0.10665E+02
  weight for this iteration     100.00

 Free energy of the ion-electron system (eV)
  ---------------------------------------------------
  alpha Z        PSCENC =       250.07506522
  Ewald energy   TEWEN  =     -5328.43853013
  -Hartree energ DENC   =     -2387.36732630
  -exchange      EXHF   =         0.00000000
  -V(xc)+E(xc)   XCENC  =       208.73592066
  PAW double counting   =      6464.99996438    -6216.90839793
  entropy T*S    EENTRO =        -0.00156731
  eigenvalues    EBANDS =      -913.53998937
  atomic energy  EATOM  =      7670.16376216
  Solvation  Ediel_sol  =         0.00000000
  ---------------------------------------------------
  free energy    TOTEN  =      -252.28109860 eV

  energy without entropy =     -252.27953129  energy(sigma->0) =     -252.28031495


--------------------------------------------------------------------------------------------------------




----------------------------------------- Iteration    1(  13)  ---------------------------------------


    POTLOK:  cpu time    0.0131: real time    0.0132
    SETDIJ:  cpu time    0.0047: real time    0.0047
    EDDIAG:  cpu time    0.7237: real time    0.7284
  RMM-DIIS:  cpu time    0.8638: real time    0.8692
    ORTHCH:  cpu time    0.1845: real time    0.1855
       DOS:  cpu time    0.0022: real time    0.0022
    CHARGE:  cpu time    0.0600: real time    0.0603
    MIXING:  cpu time    0.0005: real time    0.0005
    --------------------------------------------
      LOOP:  cpu time    1.8541: real time    1.8783

 eigenvalue-minimisations  : 12329
 total energy-change (2. order) : 0.3734201E+02  (-0.3795085E+02)
 number of electron     129.0000012 magnetization      13.5364047
 augmentation part       23.1333105 magnetization      11.7870227

 Broyden mixing:
  rms(total) = 0.59576E+01    rms(broyden)= 0.59570E+01
  rms(prec ) = 0.78311E+01
  weight for this iteration     100.00

 eigenvalues of (default mixing * dielectric matrix)
  average eigenvalue GAMMA=   0.7029
  0.7029

 Free energy of the ion-electron system (eV)
  ---------------------------------------------------
  alpha Z        PSCENC =       250.07506522
  Ewald energy   TEWEN  =     -5328.43853013
  -Hartree energ DENC   =     -2676.16292434
  -exchange      EXHF   =         0.00000000
  -V(xc)+E(xc)   XCENC  =       239.20086151
  PAW double counting   =      8269.68913029    -8023.55214459
  entropy T*S    EENTRO =        -0.00941085
  eigenvalues    EBANDS =      -615.90489374
  atomic energy  EATOM  =      7670.16376216
  Solvation  Ediel_sol  =         0.00000000
  ---------------------------------------------------
  free energy    TOTEN  =      -214.93908447 eV

  energy without entropy =     -214.92967361  energy(sigma->0) =     -214.93437904


--------------------------------------------------------------------------------------------------------




----------------------------------------- Iteration    1(  14)  ---------------------------------------


    POTLOK:  cpu time    0.0125: real time    0.0126
    SETDIJ:  cpu time    0.0046: real time    0.0046
    EDDIAG:  cpu time    0.7219: real time    0.7271
  RMM-DIIS:  cpu time    0.9865: real time    0.9940
    ORTHCH:  cpu time    0.1825: real time    0.1835
       DOS:  cpu time    0.0020: real time    0.0020
    CHARGE:  cpu time    0.0567: real time    0.0570
    MIXING:  cpu time    0.0005: real time    0.0005
    --------------------------------------------
      LOOP:  cpu time    1.9689: real time    1.9951

 eigenvalue-minimisations  : 14001
 total energy-change (2. order) :-0.1665998E+01  (-0.6000565E+01)
 number of electron     129.0000008 magnetization       5.5524110
 augmentation part       13.9349130 magnetization       4.2843497

 Broyden mixing:
  rms(total) = 0.43222E+01    rms(broyden)= 0.43220E+01
  rms(prec ) = 0.51417E+01
  weight for this iteration     100.00

 eigenvalues of (default mixing * dielectric matrix)
  average eigenvalue GAMMA=   0.8436
  1.2859  0.4014

 Free energy of the ion-electron system (eV)
  ---------------------------------------------------
  alpha Z        PSCENC =       250.07506522
  Ewald energy   TEWEN  =     -5328.43853013
  -Hartree energ DENC   =     -2599.13124477
  -exchange      EXHF   =         0.00000000
  -V(xc)+E(xc)   XCENC  =       222.71014769
  PAW double counting   =      8614.44754071    -8376.06397401
  entropy T*S    EENTRO =        -0.00302177
  eigenvalues    EBANDS =      -670.36482780
  atomic energy  EATOM  =      7670.16376216
  Solvation  Ediel_sol  =         0.00000000
  ---------------------------------------------------
  free energy    TOTEN  =      -216.60508270 eV

  energy without entropy =     -216.60206093  energy(sigma->0) =     -216.60357182


--------------------------------------------------------------------------------------------------------




----------------------------------------- Iteration    1(  15)  ---------------------------------------


    POTLOK:  cpu time    0.0135: real time    0.0136
    SETDIJ:  cpu time    0.0047: real time    0.0047
    EDDIAG:  cpu time    0.7221: real time    0.7271
  RMM-DIIS:  cpu time    0.8947: real time    0.9006
    ORTHCH:  cpu time    0.1839: real time    0.1849
       DOS:  cpu time    0.0021: real time    0.0021
    CHARGE:  cpu time    0.0570: real time    0.0573
    MIXING:  cpu time    0.0005: real time    0.0005
    --------------------------------------------
      LOOP:  cpu time    1.8802: real time    1.9057

 eigenvalue-minimisations  : 12720
 total energy-change (2. order) : 0.1442452E+02  (-0.7450406E+00)
 number of electron     129.0000008 magnetization       4.5059359
 augmentation part       15.8463104 magnetization       4.0188278

 Broyden mixing:
  rms(total) = 0.16829E+01    rms(broyden)= 0.16829E+01
  rms(prec ) = 0.21185E+01
  weight for this iteration     100.00

 eigenvalues of (default mixing * dielectric matrix)
  average eigenvalue GAMMA=   0.8392
  1.2952  0.4610  0.7615

 Free energy of the ion-electron system (eV)
  ---------------------------------------------------
  alpha Z        PSCENC =       250.07506522
  Ewald energy   TEWEN  =     -5328.43853013
  -Hartree energ DENC   =     -2615.65333016
  -exchange      EXHF   =         0.00000000
  -V(xc)+E(xc)   XCENC  =       223.30075676
  PAW double counting   =      9714.70942398    -9475.00994564
  entropy T*S    EENTRO =        -0.00903628
  eigenvalues    EBANDS =      -641.31872443
  atomic energy  EATOM  =      7670.16376216
  Solvation  Ediel_sol  =         0.00000000
  ---------------------------------------------------
  free energy    TOTEN  =      -202.18055851 eV

  energy without entropy =     -202.17152222  energy(sigma->0) =     -202.17604036


--------------------------------------------------------------------------------------------------------




----------------------------------------- Iteration    1(  16)  ---------------------------------------


    POTLOK:  cpu time    0.0127: real time    0.0128
    SETDIJ:  cpu time    0.0047: real time    0.0047
    EDDIAG:  cpu time    0.7205: real time    0.7255
  RMM-DIIS:  cpu time    0.8890: real time    0.8949
    ORTHCH:  cpu time    0.1837: real time    0.1847
       DOS:  cpu time    0.0021: real time    0.0021
    CHARGE:  cpu time    0.0599: real time    0.0602
    MIXING:  cpu time    0.0005: real time    0.0005
    --------------------------------------------
      LOOP:  cpu time    1.8747: real time    1.8995

 eigenvalue-minimisations  : 12731
 total energy-change (2. order) : 0.4425768E+00  (-0.3296455E+00)
 number of electron     129.0000008 magnetization       3.7726334
 augmentation part       16.1567603 magnetization       3.3658818

 Broyden mixing:
  rms(total) = 0.17450E+01    rms(broyden)= 0.17450E+01
  rms(prec ) = 0.20097E+01
  weight for this iteration     100.00

 eigenvalues of (default mixing * dielectric matrix)
  average eigenvalue GAMMA=   0.7339
  1.2235  0.9466  0.4762  0.2894

 Free energy of the ion-electron system (eV)
  ---------------------------------------------------
  alpha Z        PSCENC =       250.07506522
  Ewald energy   TEWEN  =     -5328.43853013
  -Hartree energ DENC   =     -2622.73012430
  -exchange      EXHF   =         0.00000000
  -V(xc)+E(xc)   XCENC  =       223.99054229
  PAW double counting   =      9846.81536122    -9605.97518951
  entropy T*S    EENTRO =        -0.00134291
  eigenvalues    EBANDS =      -635.63752578
  atomic energy  EATOM  =      7670.16376216
  Solvation  Ediel_sol  =         0.00000000
  ---------------------------------------------------
  free energy    TOTEN  =      -201.73798174 eV

  energy without entropy =     -201.73663882  energy(sigma->0) =     -201.73731028


--------------------------------------------------------------------------------------------------------




----------------------------------------- Iteration    1(  17)  ---------------------------------------


    POTLOK:  cpu time    0.0123: real time    0.0124
    SETDIJ:  cpu time    0.0046: real time    0.0046
    EDDIAG:  cpu time    0.7208: real time    0.7259
  RMM-DIIS:  cpu time    0.9395: real time    0.9456
    ORTHCH:  cpu time    0.1841: real time    0.1852
       DOS:  cpu time    0.0008: real time    0.0008
    CHARGE:  cpu time    0.0562: real time    0.0565
    MIXING:  cpu time    0.0006: real time    0.0006
    --------------------------------------------
      LOOP:  cpu time    1.9205: real time    1.9453

 eigenvalue-minimisations  : 13440
 total energy-change (2. order) : 0.3098488E+00  (-0.8708991E-01)
 number of electron     129.0000010 magnetization       3.2718035
 augmentation part       16.3290393 magnetization       2.9284765

 Broyden mixing:
  rms(total) = 0.89302E+00    rms(broyden)= 0.89300E+00
  rms(prec ) = 0.10342E+01
  weight for this iteration     100.00

 eigenvalues of (default mixing * dielectric matrix)
  average eigenvalue GAMMA=   0.7773
  1.1496  1.1496  0.4430  0.5721  0.5721

 Free energy of the ion-electron system (eV)
  ---------------------------------------------------
  alpha Z        PSCENC =       250.07506522
  Ewald energy   TEWEN  =     -5328.43853013
  -Hartree energ DENC   =     -2625.42747444
  -exchange      EXHF   =         0.00000000
  -V(xc)+E(xc)   XCENC  =       224.29217945
  PAW double counting   =      9940.93608896    -9699.75342196
  entropy T*S    EENTRO =        -0.00000000
  eigenvalues    EBANDS =      -633.27580224
  atomic energy  EATOM  =      7670.16376216
  Solvation  Ediel_sol  =         0.00000000
  ---------------------------------------------------
  free energy    TOTEN  =      -201.42813298 eV

  energy without entropy =     -201.42813298  energy(sigma->0) =     -201.42813298


--------------------------------------------------------------------------------------------------------




----------------------------------------- Iteration    1(  18)  ---------------------------------------


    POTLOK:  cpu time    0.0131: real time    0.0132
    SETDIJ:  cpu time    0.0046: real time    0.0047
    EDDIAG:  cpu time    0.7226: real time    0.7274
  RMM-DIIS:  cpu time    0.8976: real time    0.9034
    ORTHCH:  cpu time    0.1845: real time    0.1857
       DOS:  cpu time    0.0009: real time    0.0009
    CHARGE:  cpu time    0.0564: real time    0.0567
    MIXING:  cpu time    0.0006: real time    0.0006
    --------------------------------------------
      LOOP:  cpu time    1.8818: real time    1.9061

 eigenvalue-minimisations  : 12865
 total energy-change (2. order) :-0.1202643E+00  (-0.4210347E-01)
 number of electron     129.0000010 magnetization       2.7809832
 augmentation part       16.5317523 magnetization       2.4688582

 Broyden mixing:
  rms(total) = 0.59173E+00    rms(broyden)= 0.59172E+00
  rms(prec ) = 0.67509E+00
  weight for this iteration     100.00

 eigenvalues of (default mixing * dielectric matrix)
  average eigenvalue GAMMA=   0.8213
  1.3233  1.3233  0.6574  0.6574  0.5430  0.4233

 Free energy of the ion-electron system (eV)
  ---------------------------------------------------
  alpha Z        PSCENC =       250.07506522
  Ewald energy   TEWEN  =     -5328.43853013
  -Hartree energ DENC   =     -2627.87937862
  -exchange      EXHF   =         0.00000000
  -V(xc)+E(xc)   XCENC  =       224.71267476
  PAW double counting   =      9976.46249968    -9734.40085209
  entropy T*S    EENTRO =        -0.00000000
  eigenvalues    EBANDS =      -632.24363829
  atomic energy  EATOM  =      7670.16376216
  Solvation  Ediel_sol  =         0.00000000
  ---------------------------------------------------
  free energy    TOTEN  =      -201.54839730 eV

  energy without entropy =     -201.54839730  energy(sigma->0) =     -201.54839730


--------------------------------------------------------------------------------------------------------




----------------------------------------- Iteration    1(  19)  ---------------------------------------


    POTLOK:  cpu time    0.0128: real time    0.0129
    SETDIJ:  cpu time    0.0046: real time    0.0047
    EDDIAG:  cpu time    0.7314: real time    0.7370
  RMM-DIIS:  cpu time    0.9174: real time    0.9244
    ORTHCH:  cpu time    0.1822: real time    0.1834
       DOS:  cpu time    0.0008: real time    0.0008
    CHARGE:  cpu time    0.0563: real time    0.0566
    MIXING:  cpu time    0.0007: real time    0.0007
    --------------------------------------------
      LOOP:  cpu time    1.9076: real time    1.9338

 eigenvalue-minimisations  : 13092
 total energy-change (2. order) :-0.1075833E-01  (-0.1661091E-01)
 number of electron     129.0000010 magnetization       1.7180516
 augmentation part       16.6412587 magnetization       1.4148950

 Broyden mixing:
  rms(total) = 0.36023E+00    rms(broyden)= 0.36022E+00
  rms(prec ) = 0.40232E+00
  weight for this iteration     100.00

 eigenvalues of (default mixing * dielectric matrix)
  average eigenvalue GAMMA=   0.9800
  1.8058  1.8058  0.8968  0.8968  0.5126  0.5126  0.4294

 Free energy of the ion-electron system (eV)
  ---------------------------------------------------
  alpha Z        PSCENC =       250.07506522
  Ewald energy   TEWEN  =     -5328.43853013
  -Hartree energ DENC   =     -2628.03894327
  -exchange      EXHF   =         0.00000000
  -V(xc)+E(xc)   XCENC  =       224.80671929
  PAW double counting   =     10006.78540329    -9764.28570913
  entropy T*S    EENTRO =        -0.00000000
  eigenvalues    EBANDS =      -632.62692307
  atomic energy  EATOM  =      7670.16376216
  Solvation  Ediel_sol  =         0.00000000
  ---------------------------------------------------
  free energy    TOTEN  =      -201.55915564 eV

  energy without entropy =     -201.55915564  energy(sigma->0) =     -201.55915564


--------------------------------------------------------------------------------------------------------




----------------------------------------- Iteration    1(  20)  ---------------------------------------


    POTLOK:  cpu time    0.0126: real time    0.0127
    SETDIJ:  cpu time    0.0047: real time    0.0047
    EDDIAG:  cpu time    0.7222: real time    0.7280
  RMM-DIIS:  cpu time    0.8856: real time    0.8921
    ORTHCH:  cpu time    0.1824: real time    0.1836
       DOS:  cpu time    0.0007: real time    0.0007
    CHARGE:  cpu time    0.0563: real time    0.0566
    MIXING:  cpu time    0.0007: real time    0.0007
    --------------------------------------------
      LOOP:  cpu time    1.8668: real time    1.8952

 eigenvalue-minimisations  : 12834
 total energy-change (2. order) :-0.1430387E+00  (-0.2101618E-01)
 number of electron     129.0000011 magnetization       1.0187619
 augmentation part       16.7400580 magnetization       0.7256279

 Broyden mixing:
  rms(total) = 0.17070E+00    rms(broyden)= 0.17069E+00
  rms(prec ) = 0.19730E+00
  weight for this iteration     100.00

 eigenvalues of (default mixing * dielectric matrix)
  average eigenvalue GAMMA=   1.0070
  1.7179  1.6711  1.6711  0.9328  0.5621  0.5621  0.4265  0.5127

 Free energy of the ion-electron system (eV)
  ---------------------------------------------------
  alpha Z        PSCENC =       250.07506522
  Ewald energy   TEWEN  =     -5328.43853013
  -Hartree energ DENC   =     -2629.57795254
  -exchange      EXHF   =         0.00000000
  -V(xc)+E(xc)   XCENC  =       225.05540532
  PAW double counting   =     10079.98642680    -9836.56617370
  entropy T*S    EENTRO =        -0.00000000
  eigenvalues    EBANDS =      -632.40019745
  atomic energy  EATOM  =      7670.16376216
  Solvation  Ediel_sol  =         0.00000000
  ---------------------------------------------------
  free energy    TOTEN  =      -201.70219432 eV

  energy without entropy =     -201.70219432  energy(sigma->0) =     -201.70219432


--------------------------------------------------------------------------------------------------------




----------------------------------------- Iteration    1(  21)  ---------------------------------------


    POTLOK:  cpu time    0.0128: real time    0.0129
    SETDIJ:  cpu time    0.0047: real time    0.0047
    EDDIAG:  cpu time    0.7226: real time    0.7282
  RMM-DIIS:  cpu time    0.9480: real time    0.9549
    ORTHCH:  cpu time    0.1837: real time    0.1849
       DOS:  cpu time    0.0007: real time    0.0007
    CHARGE:  cpu time    0.0561: real time    0.0563
    MIXING:  cpu time    0.0007: real time    0.0007
    --------------------------------------------
      LOOP:  cpu time    1.9310: real time    1.9576

 eigenvalue-minimisations  : 13461
 total energy-change (2. order) :-0.2276275E-01  (-0.8158211E-02)
 number of electron     129.0000010 magnetization       0.8991610
 augmentation part       16.7968855 magnetization       0.6291455

 Broyden mixing:
  rms(total) = 0.10925E+00    rms(broyden)= 0.10924E+00
  rms(prec ) = 0.12934E+00
  weight for this iteration     100.00

 eigenvalues of (default mixing * dielectric matrix)
  average eigenvalue GAMMA=   0.9831
  2.3014  1.5202  1.5202  0.9147  0.6346  0.6346  0.4546  0.4546  0.4126

 Free energy of the ion-electron system (eV)
  ---------------------------------------------------
  alpha Z        PSCENC =       250.07506522
  Ewald energy   TEWEN  =     -5328.43853013
  -Hartree energ DENC   =     -2632.62753142
  -exchange      EXHF   =         0.00000000
  -V(xc)+E(xc)   XCENC  =       225.36024549
  PAW double counting   =     10164.65067079    -9921.00167837
  entropy T*S    EENTRO =        -0.00000000
  eigenvalues    EBANDS =      -629.90696082
  atomic energy  EATOM  =      7670.16376216
  Solvation  Ediel_sol  =         0.00000000
  ---------------------------------------------------
  free energy    TOTEN  =      -201.72495707 eV

  energy without entropy =     -201.72495707  energy(sigma->0) =     -201.72495707


--------------------------------------------------------------------------------------------------------




----------------------------------------- Iteration    1(  22)  ---------------------------------------


    POTLOK:  cpu time    0.0128: real time    0.0128
    SETDIJ:  cpu time    0.0046: real time    0.0047
    EDDIAG:  cpu time    0.7340: real time    0.7396
  RMM-DIIS:  cpu time    0.9566: real time    0.9637
    ORTHCH:  cpu time    0.1831: real time    0.1842
       DOS:  cpu time    0.0008: real time    0.0008
    CHARGE:  cpu time    0.0564: real time    0.0567
    MIXING:  cpu time    0.0007: real time    0.0008
    --------------------------------------------
      LOOP:  cpu time    1.9507: real time    1.9774

 eigenvalue-minimisations  : 13617
 total energy-change (2. order) : 0.9499204E-03  (-0.9423259E-03)
 number of electron     129.0000010 magnetization       0.9272780
 augmentation part       16.7951359 magnetization       0.6642906

 Broyden mixing:
  rms(total) = 0.50128E-01    rms(broyden)= 0.50125E-01
  rms(prec ) = 0.63304E-01
  weight for this iteration     100.00

 eigenvalues of (default mixing * dielectric matrix)
  average eigenvalue GAMMA=   0.9901
  2.3513  1.6290  1.6290  0.9621  0.7349  0.7349  0.4990  0.4990  0.4234  0.4381

 Free energy of the ion-electron system (eV)
  ---------------------------------------------------
  alpha Z        PSCENC =       250.07506522
  Ewald energy   TEWEN  =     -5328.43853013
  -Hartree energ DENC   =     -2633.73818421
  -exchange      EXHF   =         0.00000000
  -V(xc)+E(xc)   XCENC  =       225.42630980
[...]
     56      -0.3147      1.00000
     57      -0.2500      1.00000
     58      -0.1858      1.00000
     59      -0.1483      1.00000
     60      -0.1210      1.00000
     61      -0.0619      1.00000
     62       0.2803      1.00000
     63       0.2969      1.00000
     64       0.4017      1.00000
     65       4.0637      0.00000
     66       4.0888      0.00000
     67       4.1599      0.00000
     68       4.1672      0.00000
     69       4.3203      0.00000
     70       4.3255      0.00000
     71       4.7902      0.00000
     72       4.8704      0.00000
     73       4.9313      0.00000
     74       4.9734      0.00000
     75       5.0441      0.00000
     76       5.0923      0.00000
     77       5.1193      0.00000
     78       5.1818      0.00000
     79       5.2579      0.00000
     80       5.3004      0.00000
     81       5.7905      0.00000
     82       6.0337      0.00000
     83       6.0544      0.00000
     84       6.3894      0.00000
     85       7.8325      0.00000
     86       7.9375      0.00000
     87       8.6904      0.00000
     88       8.8304      0.00000
     89       9.7079      0.00000
     90       9.8045      0.00000
     91      10.1845      0.00000
     92      10.3855      0.00000
     93      10.5079      0.00000
     94      10.6526      0.00000
     95      10.7841      0.00000
     96      11.0245      0.00000
     97      11.1664      0.00000
     98      11.3547      0.00000
     99      11.4477      0.00000
    100      11.7874      0.00000
    101      12.5129      0.00000
    102      12.7304      0.00000
    103      13.0872      0.00000
    104      13.2732      0.00000

 k-point    26 :      -0.2500   -0.2500    0.3333
  band No.  band energies     occupation 
      1     -16.0832      1.00000
      2     -15.9805      1.00000
      3     -15.8404      1.00000
      4     -15.6950      1.00000
      5     -15.6756      1.00000
      6     -15.6122      1.00000
      7     -15.5815      1.00000
      8     -15.5299      1.00000
      9     -15.5174      1.00000
     10     -15.4716      1.00000
     11     -15.4124      1.00000
     12     -15.3496      1.00000
     13     -15.0977      1.00000
     14     -14.8385      1.00000
     15     -14.6425      1.00000
     16     -14.5371      1.00000
     17      -3.1668      1.00000
     18      -3.1044      1.00000
     19      -3.0143      1.00000
     20      -2.9552      1.00000
     21      -2.8426      1.00000
     22      -2.7484      1.00000
     23      -2.7001      1.00000
     24      -2.6578      1.00000
     25      -2.5695      1.00000
     26      -2.5491      1.00000
     27      -2.4632      1.00000
     28      -2.3511      1.00000
     29      -2.3179      1.00000
     30      -2.2149      1.00000
     31      -2.1564      1.00000
     32      -2.0470      1.00000
     33      -1.9525      1.00000
     34      -1.9299      1.00000
     35      -1.8626      1.00000
     36      -1.8013      1.00000
     37      -1.6713      1.00000
     38      -1.6297      1.00000
     39      -1.4885      1.00000
     40      -1.3858      1.00000
     41      -1.2585      1.00000
     42      -1.1945      1.00000
     43      -1.1223      1.00000
     44      -1.0751      1.00000
     45      -0.9618      1.00000
     46      -0.9133      1.00000
     47      -0.8152      1.00000
     48      -0.7821      1.00000
     49      -0.7196      1.00000
     50      -0.6925      1.00000
     51      -0.6134      1.00000
     52      -0.5414      1.00000
     53      -0.5128      1.00000
     54      -0.4280      1.00000
     55      -0.3537      1.00000
     56      -0.3110      1.00000
     57      -0.2138      1.00000
     58      -0.1680      1.00000
     59      -0.1335      1.00000
     60      -0.1200      1.00000
     61      -0.0533      1.00000
     62       0.2886      1.00000
     63       0.3027      1.00000
     64       0.4058      1.00000
     65       4.0637      0.00000
     66       4.0868      0.00000
     67       4.1542      0.00000
     68       4.1621      0.00000
     69       4.3216      0.00000
     70       4.3282      0.00000
     71       4.7876      0.00000
     72       4.8440      0.00000
     73       4.8815      0.00000
     74       4.9621      0.00000
     75       4.9932      0.00000
     76       5.0699      0.00000
     77       5.0970      0.00000
     78       5.2025      0.00000
     79       5.2867      0.00000
     80       5.3791      0.00000
     81       5.8064      0.00000
     82       6.0441      0.00000
     83       6.0726      0.00000
     84       6.3877      0.00000
     85       7.6159      0.00000
     86       8.2949      0.00000
     87       8.6628      0.00000
     88       8.9478      0.00000
     89       9.6255      0.00000
     90       9.7768      0.00000
     91       9.9377      0.00000
     92      10.3034      0.00000
     93      10.4632      0.00000
     94      10.6681      0.00000
     95      10.8220      0.00000
     96      10.9528      0.00000
     97      11.1143      0.00000
     98      11.5216      0.00000
     99      11.7871      0.00000
    100      11.9527      0.00000
    101      12.4036      0.00000
    102      12.7810      0.00000
    103      12.9270      0.00000
    104      13.1462      0.00000


--------------------------------------------------------------------------------------------------------


 soft charge-density along one line, spin component           1
         0         1         2         3         4         5         6         7         8         9
 total charge-density along one line
 
 soft charge-density along one line, spin component           2
         0         1         2         3         4         5         6         7         8         9
 total charge-density along one line
 
 pseudopotential strength for first ion, spin component:           1
  1.181   5.286  -0.002  -0.002  -0.000
  5.286  22.612  -0.006  -0.009  -0.001
 -0.002  -0.006  -0.320   0.000   0.000
 -0.002  -0.009   0.000  -0.320   0.000
 -0.000  -0.001   0.000   0.000  -0.321
 pseudopotential strength for first ion, spin component:           2
  1.181   5.286  -0.002  -0.002  -0.000
  5.286  22.613  -0.006  -0.009  -0.001
 -0.002  -0.006  -0.320   0.000   0.000
 -0.002  -0.009   0.000  -0.320   0.000
 -0.000  -0.001   0.000   0.000  -0.321
 total augmentation occupancy for first ion, spin component:           1
  1.136  -0.030   0.022   0.033   0.004
 -0.030   0.001  -0.001  -0.001  -0.000
  0.022  -0.001   0.115   0.009   0.006
  0.033  -0.001   0.009   0.114   0.005
  0.004  -0.000   0.006   0.005   0.090
 total augmentation occupancy for first ion, spin component:           2
 -0.001   0.000  -0.001  -0.000  -0.000
  0.000  -0.000   0.000   0.000   0.000
 -0.001   0.000  -0.000  -0.000  -0.000
 -0.000   0.000  -0.000  -0.000  -0.000
 -0.000   0.000  -0.000  -0.000  -0.000


------------------------ aborting loop because EDIFF is reached ----------------------------------------


    CHARGE:  cpu time    0.0559: real time    0.0564
    FORLOC:  cpu time    0.0012: real time    0.0012
    FORNL :  cpu time    0.3758: real time    0.3777
    STRESS:  cpu time    1.1319: real time    1.1379
    FORCOR:  cpu time    0.0130: real time    0.0130
    FORHAR:  cpu time    0.0024: real time    0.0024
    MIXING:  cpu time    0.0013: real time    0.0014
    OFIELD:  cpu time    0.0000: real time    0.0000

 ---------------------------------------------------------------------------------------------

         DFTD3 V3.0 Rev 1        
 IVDW         = 12
 DF pbe       
 parameters
 VDW_S6       =    1.0000
 VDW_S8       =    0.7875
 VDW_A1       =    0.4289
 VDW_A2       =    4.4407
 k1-k3        =   16.0000    1.3333   -4.0000
 VDW_RADIUS   =   50.2022 A
 VDW_CNRADIUS =   21.1671 A
 Edisp (eV)   -6.77734

 E6    (eV) :    -4.1673
 E8    (eV) :    -2.6100
 % E8        : 38.51
    FORVDW:  cpu time    0.1890: real time    0.1902

  FORCE on cell =-STRESS in cart. coord.  units (eV):
  Direction    XX          YY          ZZ          XY          YZ          ZX
  --------------------------------------------------------------------------------------
  Alpha Z   250.07507   250.07507   250.07507
  Ewald   -1700.34047 -1828.54402 -1799.57349    -0.91931     0.31989     0.01460
  Hartree   941.51356   820.19151   873.19304    -3.51554     0.19084     0.08025
  E(xc)    -605.12163  -605.99734  -605.58243     0.51782     0.00509     0.00823
  Local   -1017.07259  -767.77630  -852.78032     7.70180    -0.47901    -0.06260
  n-local  -342.04170  -341.14304  -342.74461     1.90491     0.01411    -0.00213
  augment   177.92121   179.79016   179.63072    -2.46828    -0.02196    -0.02871
  Kinetic  2301.95234  2300.40389  2304.77510    -3.25536    -0.02685    -0.01298
  Fock        0.00000     0.00000     0.00000     0.00000     0.00000     0.00000
  vdW        -6.94074    -7.01888    -7.00096    -0.00265     0.00006    -0.00000
  -------------------------------------------------------------------------------------
  Total      -0.05496    -0.01895    -0.00788    -0.03661     0.00217    -0.00335
  in kB      -0.26156    -0.09020    -0.03749    -0.17424     0.01033    -0.01596
  external pressure =       -0.13 kB  Pullay stress =        0.00 kB


 VOLUME and BASIS-vectors are now :
 -----------------------------------------------------------------------------
  energy-cutoff  :      600.00
  volume of cell :      336.63
      direct lattice vectors                 reciprocal lattice vectors
     9.867354178  0.023096466 -0.001518543     0.101344946 -0.000280869 -0.000004984
     0.015104915  5.450277915 -0.001642267    -0.000429477  0.183478050 -0.000073759
     0.000314824  0.002517070  6.259426196     0.000024474  0.000048070  0.159759032

  length of vectors
     9.867381325  5.450299094  6.259426710     0.101345336  0.183478568  0.159759041


 FORCES acting on ions
    electron-ion (+dipol)            ewald-force                    non-local-force                 convergence-correction
 -----------------------------------------------------------------------------------------------
   -.199E+01 0.507E+01 0.231E+01   0.203E+01 -.482E+01 -.194E+01   -.449E-01 -.254E+00 -.375E+00   0.168E-03 -.942E-05 0.114E-04
   0.498E+01 -.340E+01 0.837E+00   -.490E+01 0.353E+01 -.688E+00   -.846E-01 -.133E+00 -.147E+00   0.420E-04 0.190E-04 0.209E-04
   0.498E+01 -.339E+01 -.876E+00   -.490E+01 0.352E+01 0.723E+00   -.860E-01 -.133E+00 0.153E+00   0.236E-04 0.510E-04 -.196E-04
   -.201E+01 0.508E+01 -.232E+01   0.204E+01 -.483E+01 0.195E+01   -.441E-01 -.255E+00 0.378E+00   0.190E-03 -.574E-05 -.138E-04
   0.335E+00 -.889E+01 0.103E-01   -.602E-01 0.828E+01 -.892E-02   -.274E+00 0.606E+00 -.350E-04   0.178E-03 0.984E-05 0.363E-05
   0.248E+01 0.614E+01 -.823E-02   -.233E+01 -.635E+01 0.750E-02   -.153E+00 0.206E+00 0.172E-02   0.157E-04 -.424E-04 0.153E-05
   -.848E+01 0.421E+01 0.851E-02   0.686E+01 -.397E+01 -.832E-02   0.162E+01 -.238E+00 0.107E-04   -.146E-03 -.303E-04 -.526E-05
   -.488E+00 0.238E+01 0.499E+01   0.118E+00 -.213E+01 -.489E+01   0.372E+00 -.253E+00 -.941E-01   -.207E-03 -.194E-04 -.212E-04
   -.187E+01 -.349E+01 -.120E+01   0.187E+01 0.340E+01 0.108E+01   0.819E-02 0.861E-01 0.127E+00   -.481E-05 0.797E-05 -.225E-04
   -.186E+01 -.350E+01 0.123E+01   0.186E+01 0.341E+01 -.110E+01   0.783E-02 0.887E-01 -.128E+00   -.298E-05 0.103E-04 0.225E-04
   -.497E+00 0.239E+01 -.501E+01   0.126E+00 -.214E+01 0.491E+01   0.373E+00 -.255E+00 0.969E-01   -.194E-03 -.320E-04 0.259E-04
   -.285E+01 -.421E+01 0.296E-01   0.229E+01 0.373E+01 -.266E-01   0.553E+00 0.477E+00 -.243E-02   -.203E-03 0.437E-04 -.141E-04
   -.198E+01 0.815E+01 -.313E-01   0.185E+01 -.776E+01 0.285E-01   0.130E+00 -.387E+00 0.415E-02   0.560E-05 -.166E-04 0.226E-06
   -.490E+01 -.105E+02 0.718E-03   0.481E+01 0.104E+02 -.205E-02   0.965E-01 0.149E+00 0.142E-02   -.949E-03 0.497E-04 0.728E-04
   0.149E+02 -.140E+02 0.119E-01   -.145E+02 0.127E+02 -.121E-01   -.451E+00 0.125E+01 -.896E-04   -.620E-04 -.134E-03 -.444E-04
   -.107E+02 -.810E+01 0.348E-01   0.106E+02 0.811E+01 -.322E-01   0.105E+00 -.136E-01 -.292E-03   0.791E-03 -.214E-04 0.426E-05
   -.170E+02 0.443E+01 0.488E-01   0.169E+02 -.448E+01 -.491E-01   0.147E+00 0.512E-01 0.343E-03   0.204E-03 -.377E-04 -.242E-05
   -.313E+02 -.635E+02 -.864E+02   0.358E+02 0.711E+02 0.100E+03   -.450E+01 -.761E+01 -.138E+02   0.139E-02 0.490E-03 0.849E-03
   0.107E+03 -.416E+01 -.211E-01   -.125E+03 0.243E+01 0.313E-01   0.175E+02 0.173E+01 -.102E-01   -.638E-03 0.138E-03 0.211E-03
   -.313E+02 -.634E+02 0.864E+02   0.358E+02 0.710E+02 -.100E+03   -.448E+01 -.760E+01 0.138E+02   0.144E-02 0.682E-03 -.861E-03
   0.409E+01 0.390E+02 0.787E+02   -.175E+01 -.436E+02 -.889E+02   -.235E+01 0.462E+01 0.101E+02   0.648E-03 -.582E-03 -.102E-02
   0.409E+01 0.389E+02 -.788E+02   -.175E+01 -.436E+02 0.889E+02   -.234E+01 0.462E+01 -.101E+02   -.383E-03 -.126E-02 0.946E-03
   -.119E+01 -.638E+02 0.384E-01   0.516E+01 0.727E+02 -.345E-01   -.398E+01 -.888E+01 -.163E-02   0.284E-03 0.152E-02 -.775E-03
   -.373E+02 0.108E+03 -.676E-01   0.429E+02 -.123E+03 0.750E-01   -.553E+01 0.154E+02 -.748E-02   0.138E-02 -.104E-02 -.117E-03
   0.672E+02 0.205E+02 0.418E-01   -.812E+02 -.219E+02 -.521E-01   0.140E+02 0.139E+01 0.799E-02   -.260E-03 -.401E-03 0.722E-03
   -.370E+02 -.501E+02 -.699E+02   0.417E+02 0.575E+02 0.832E+02   -.475E+01 -.740E+01 -.133E+02   -.126E-02 0.256E-03 0.430E-03
   0.793E+02 -.162E+02 -.743E-01   -.962E+02 0.163E+02 0.849E-01   0.169E+02 -.616E-01 -.101E-01   -.580E-03 0.125E-03 0.107E-04
   -.370E+02 -.500E+02 0.700E+02   0.417E+02 0.574E+02 -.833E+02   -.474E+01 -.738E+01 0.133E+02   -.121E-02 0.393E-03 -.402E-03
   -.412E+02 0.588E+02 0.870E+02   0.469E+02 -.665E+02 -.101E+03   -.572E+01 0.768E+01 0.139E+02   0.102E-02 -.786E-03 -.128E-02
   -.412E+02 0.588E+02 -.871E+02   0.469E+02 -.664E+02 0.101E+03   -.572E+01 0.766E+01 -.139E+02   0.105E-02 -.799E-03 0.128E-02
   -.351E+02 -.106E+03 0.840E-01   0.391E+02 0.121E+03 -.888E-01   -.403E+01 -.154E+02 0.510E-02   0.627E-03 0.141E-02 -.213E-04
   -.331E+02 0.100E+03 -.423E-01   0.404E+02 -.114E+03 0.423E-01   -.727E+01 0.135E+02 -.155E-03   -.114E-02 -.594E-03 0.465E-04
   0.792E+02 0.836E+01 0.782E-03   -.953E+02 -.109E+02 -.116E-02   0.160E+02 0.254E+01 0.159E-02   -.256E-02 -.974E-04 -.801E-05
 -----------------------------------------------------------------------------------------------
   -.113E+02 -.584E+01 0.197E-01   -.128E-12 0.178E-13 -.388E-13   0.113E+02 0.586E+01 -.364E-02   -.348E-03 -.701E-03 0.264E-04
 
 
 POSITION                                       TOTAL-FORCE (eV/Angst)
 -----------------------------------------------------------------------------------
      0.09980      3.60043      1.63387        -0.003693      0.000107     -0.002101
      2.45302      1.83887      1.59419        -0.000319      0.001885     -0.000796
      2.45260      1.84033      4.78618        -0.001239      0.001294      0.000936
      0.09988      3.60234      4.74437        -0.003153     -0.001035      0.003214
      9.84412      0.88020      3.18789         0.004201      0.003332      0.000884
      2.56667      4.43967      0.05982         0.005177     -0.001962      0.000508
      4.00978      2.62727      3.19029        -0.003517      0.002418     -0.000292
      5.01369      3.72074      1.46475         0.000584      0.000720      0.002890
      7.43812      1.77304      1.63155        -0.001621      0.001621      0.002010
      7.43779      1.77450      4.74677        -0.001165      0.002084     -0.002124
      5.01407      3.72211      4.91361         0.000656      0.000987     -0.001897
      5.13325      0.67321      3.19027        -0.006282      0.001938      0.000073
      7.53278      4.51860      0.05906        -0.000558     -0.001485      0.000925
      4.93666      0.97356      0.06048         0.002659      0.002737     -0.000310
      2.45442      4.68019      3.18946         0.004890     -0.005964     -0.000841
      9.86548      0.89450      0.05862         0.002987     -0.000309      0.001842
      7.43134      4.42677      3.18882         0.007952     -0.001991     -0.000355
      0.52913      1.70386      1.48947        -0.000429     -0.004363      0.002361
      3.21975      0.90765      0.06149        -0.001379      0.001020     -0.000319
      0.52827      1.70523      4.88915        -0.000191     -0.004771     -0.003687
      3.11145      3.65580      1.77958        -0.004377     -0.003078     -0.004691
      3.11139      3.65709      4.60031        -0.000041      0.000588      0.003960
      3.16632      0.89215      3.19111         0.000673     -0.004944      0.000954
      0.55995      4.67657      0.05934         0.003778      0.003697     -0.000624
      0.68577      4.50914      3.18889        -0.000984     -0.000721     -0.002111
      5.45860      1.79700      1.51229        -0.001874     -0.002705      0.000311
      8.13037      0.90580      0.05972        -0.003899      0.001661      0.000078
      5.45811      1.79753      4.86657        -0.001662     -0.002543     -0.000167
      7.98302      3.63239      1.75361        -0.000353      0.003305     -0.006823
      7.98303      3.63459      4.62518        -0.000628      0.003151      0.006303
      7.83152      0.66556      3.18943         0.004686      0.000858     -0.000213
      5.58365      4.80601      0.05925        -0.000915     -0.000195     -0.000608
      5.68825      4.31336      3.18916         0.000035      0.002664      0.000713
 -----------------------------------------------------------------------------------
    total drift:                               -0.016856      0.016588      0.016087


--------------------------------------------------------------------------------------------------------



  FREE ENERGIE OF THE ION-ELECTRON SYSTEM (eV)
  ---------------------------------------------------
  free  energy   TOTEN  =      -208.50000305 eV

  energy  without entropy=     -208.50000305  energy(sigma->0) =     -208.50000305
 


--------------------------------------------------------------------------------------------------------


    POTLOK:  cpu time    0.0185: real time    0.0186


--------------------------------------------------------------------------------------------------------


 stress matrix after NEB project (eV)
     -0.05496     -0.03661     -0.00335
     -0.03661     -0.01895      0.00217
     -0.00335      0.00217     -0.00788
  FORCES: max atom, RMS     0.008205    0.004703
  FORCE total and by dimension    0.027015    0.007952
  Stress total and by dimension    0.078444    0.054956


--------------------------------------------------------------------------------------------------------


  
 reached required accuracy - stopping structural energy minimisation
     LOOP+:  cpu time   56.4857: real time   57.2704
    4ORBIT:  cpu time    0.0000: real time    0.0000

 total amount of memory used by VASP on root node    51656. kBytes
========================================================================

   base      :      30000. kBytes
   nonlr-proj:       3035. kBytes
   fftplans  :        753. kBytes
   grid      :       1965. kBytes
   one-center:        155. kBytes
   wavefun   :      15748. kBytes
 
  
  
 General timing and accounting informations for this job:
 ========================================================
  
                  Total CPU time used (sec):       63.619
                            User time (sec):       61.477
                          System time (sec):        2.142
                         Elapsed time (sec):       67.473
  
                   Maximum memory used (kb):      492864.
                   Average memory used (kb):           0.
  
                          Minor page faults:        89343
                          Major page faults:          136
                 Voluntary context switches:         5728
