 running on   64 total cores
 distrk:  each k-point on   64 cores,    1 groups
 distr:  one band on    8 cores,    8 groups
 using from now: INCAR     
 vasp.5.4.1 05Feb16 (build Apr 23 2022 14:15:44) complex                        
  
 POSCAR found type information on POSCAR  Li V  O 
 POSCAR found :  3 types and      33 ions
 scaLAPACK will be used
 LDA part: xc-table for Pade appr. of Perdew
 POSCAR found type information on POSCAR  Li V  O 
 POSCAR found :  3 types and      33 ions
 POSCAR, INCAR and KPOINTS ok, starting setup
 WARNING: small aliasing (wrap around) errors must be expected
 FFT: planning ...
 WAVECAR not read
 WARNING: random wavefunctions but no delay for mixing, default for NELMDL
 entering main loop
       N       E                     dE             d eps       ncg     rms          rms(c)
RMM:   1     0.172758527412E+04    0.17276E+04   -0.45914E+04  5408   0.118E+03
RMM:   2     0.504717647856E+03   -0.12229E+04   -0.11538E+04  5408   0.296E+02
RMM:   3     0.127811497014E+03   -0.37691E+03   -0.33580E+03  5408   0.166E+02
RMM:   4    -0.590373443099E+02   -0.18685E+03   -0.11141E+03  5408   0.214E+02
RMM:   5    -0.158038311387E+03   -0.99001E+02   -0.70707E+02  5408   0.110E+02
RMM:   6    -0.202561913351E+03   -0.44524E+02   -0.29276E+02  5408   0.924E+01
RMM:   7    -0.227259524290E+03   -0.24698E+02   -0.18066E+02  5408   0.534E+01
RMM:   8    -0.238558280901E+03   -0.11299E+02   -0.79178E+01  5408   0.492E+01
RMM:   9    -0.251957131544E+03   -0.13399E+02   -0.11850E+02 14200   0.264E+01
RMM:  10    -0.252256974720E+03   -0.29984E+00   -0.24151E+00 14198   0.378E+00
RMM:  11    -0.252277744803E+03   -0.20770E-01   -0.13142E-01 14143   0.632E-01
RMM:  12    -0.252281098599E+03   -0.33538E-02   -0.26298E-02 12885   0.135E-01    0.951E+01
RMM:  13    -0.214939084468E+03    0.37342E+02   -0.37951E+02 12329   0.669E+01    0.596E+01
RMM:  14    -0.216605082699E+03   -0.16660E+01   -0.60006E+01 14001   0.232E+01    0.432E+01
RMM:  15    -0.202180558505E+03    0.14425E+02   -0.74504E+00 12720   0.100E+01    0.168E+01
RMM:  16    -0.201737981737E+03    0.44258E+00   -0.32965E+00 12731   0.602E+00    0.175E+01
RMM:  17    -0.201428132979E+03    0.30985E+00   -0.87090E-01 13440   0.284E+00    0.893E+00
RMM:  18    -0.201548397305E+03   -0.12026E+00   -0.42103E-01 12865   0.210E+00    0.592E+00
RMM:  19    -0.201559155638E+03   -0.10758E-01   -0.16611E-01 13092   0.134E+00    0.360E+00
RMM:  20    -0.201702194321E+03   -0.14304E+00   -0.21016E-01 12834   0.162E+00    0.171E+00
RMM:  21    -0.201724957073E+03   -0.22763E-01   -0.81582E-02 13461   0.886E-01    0.109E+00
RMM:  22    -0.201724007153E+03    0.94992E-03   -0.94233E-03 13617   0.302E-01    0.501E-01
RMM:  23    -0.201722743093E+03    0.12641E-02   -0.24196E-03 12162   0.204E-01    0.271E-01
RMM:  24    -0.201722687972E+03    0.55121E-04   -0.14853E-03 12295   0.141E-01    0.124E-01
RMM:  25    -0.201722723836E+03   -0.35864E-04   -0.39602E-04 12755   0.664E-02    0.982E-02
RMM:  26    -0.201722678843E+03    0.44993E-04   -0.22879E-04 12958   0.445E-02    0.547E-02
RMM:  27    -0.201722660534E+03    0.18309E-04   -0.64439E-05 12693   0.261E-02    0.295E-02
RMM:  28    -0.201722654587E+03    0.59470E-05   -0.23899E-05 12216   0.164E-02    0.154E-02
RMM:  29    -0.201722655883E+03   -0.12959E-05   -0.67415E-06 10209   0.975E-03    0.112E-02
RMM:  30    -0.201722657417E+03   -0.15340E-05   -0.27437E-06  7888   0.668E-03    0.846E-03
RMM:  31    -0.201722658477E+03   -0.10604E-05   -0.10432E-06  6805   0.420E-03    0.757E-03
RMM:  32    -0.201722659318E+03   -0.84054E-06   -0.69946E-07  6700   0.361E-03
   1 F= -.20850000E+03 E0= -.20850000E+03  d E =-.208500E+03  mag=     0.9997
 curvature:   0.00 expect dE= 0.000E+00 dE for cont linesearch  0.000E+00
 trial: gam= 0.00000 g(F)=  0.352E-04 g(S)=  0.900E-05 ort = 0.000E+00 (trialstep = 0.100E+01)
 search vector abs. value=  0.442E-04
 reached required accuracy - stopping structural energy minimisation
