  13  13   0   0
  0.1053563E+02  0.5516869E-09  0.4961443E-09  0.5698278E-09  0.5000000E-15
  1.000000000000000E-004
  CAR 
 unknown system                          
     20.29659545    -16.84957025  301      5.34571945      1.00000000
    -16.850  0.0000E+00  0.0000E+00  0.0000E+00  0.0000E+00
    -16.726  0.0000E+00  0.0000E+00  0.0000E+00  0.0000E+00
    -16.602  0.0000E+00  0.0000E+00  0.0000E+00  0.0000E+00
    -16.478  0.0000E+00  0.0000E+00  0.0000E+00  0.0000E+00
    -16.354  0.0000E+00  0.0000E+00  0.0000E+00  0.0000E+00
    -16.230  0.0000E+00  0.0000E+00  0.0000E+00  0.0000E+00
    -16.107  0.0000E+00  0.0000E+00  0.0000E+00  0.0000E+00
    -15.983  0.0000E+00  0.0000E+00  0.0000E+00  0.0000E+00
    -15.859  0.0000E+00  0.0000E+00  0.0000E+00  0.0000E+00
    -15.735  0.0000E+00  0.0000E+00  0.0000E+00  0.0000E+00
    -15.611  0.0000E+00  0.0000E+00  0.0000E+00  0.0000E+00
    -15.488  0.0000E+00  0.0000E+00  0.0000E+00  0.0000E+00
    -15.364  0.0000E+00  0.0000E+00  0.0000E+00  0.0000E+00
    -15.240  0.4795E-08  0.4796E-08  0.5938E-09  0.5938E-09
    -15.116  0.1648E-03  0.1648E-03  0.2041E-04  0.2041E-04
    -14.992  0.1071E-02  0.1071E-02  0.1530E-03  0.1530E-03
    -14.868  0.2430E-02  0.2430E-02  0.4539E-03  0.4539E-03
    -14.745  0.4167E-02  0.4167E-02  0.9699E-03  0.9699E-03
    -14.621  0.6862E-02  0.6862E-02  0.1820E-02  0.1820E-02
    -14.497  0.9739E-02  0.9739E-02  0.3025E-02  0.3025E-02
    -14.373  0.2506E-01  0.2506E-01  0.6128E-02  0.6128E-02
    -14.249  0.1494E-01  0.1494E-01  0.7978E-02  0.7978E-02
    -14.126  0.1809E-03  0.1809E-03  0.8000E-02  0.8000E-02
    -14.002  0.4764E-05  0.4764E-05  0.8001E-02  0.8001E-02
    -13.878  0.2986E-02  0.2986E-02  0.8370E-02  0.8370E-02
    -13.754  0.1947E-01  0.1947E-01  0.1078E-01  0.1078E-01
    -13.630  0.2474E-01  0.2474E-01  0.1384E-01  0.1384E-01
    -13.506  0.1340E-01  0.1340E-01  0.1550E-01  0.1550E-01
    -13.383  0.3974E-02  0.3974E-02  0.1600E-01  0.1600E-01
    -13.259  0.3395E-04  0.3395E-04  0.1600E-01  0.1600E-01
    -13.135  0.0000E+00  0.0000E+00  0.1600E-01  0.1600E-01
    -13.011  0.0000E+00  0.0000E+00  0.1600E-01  0.1600E-01
    -12.887  0.0000E+00  0.0000E+00  0.1600E-01  0.1600E-01
    -12.763  0.0000E+00  0.0000E+00  0.1600E-01  0.1600E-01
    -12.640  0.0000E+00  0.0000E+00  0.1600E-01  0.1600E-01
    -12.516  0.0000E+00  0.0000E+00  0.1600E-01  0.1600E-01
    -12.392  0.0000E+00  0.0000E+00  0.1600E-01  0.1600E-01
    -12.268  0.0000E+00  0.0000E+00  0.1600E-01  0.1600E-01
    -12.144  0.0000E+00  0.0000E+00  0.1600E-01  0.1600E-01
    -12.021  0.0000E+00  0.0000E+00  0.1600E-01  0.1600E-01
    -11.897  0.0000E+00  0.0000E+00  0.1600E-01  0.1600E-01
    -11.773  0.0000E+00  0.0000E+00  0.1600E-01  0.1600E-01
    -11.649  0.0000E+00  0.0000E+00  0.1600E-01  0.1600E-01
    -11.525  0.0000E+00  0.0000E+00  0.1600E-01  0.1600E-01
    -11.401  0.0000E+00  0.0000E+00  0.1600E-01  0.1600E-01
    -11.278  0.0000E+00  0.0000E+00  0.1600E-01  0.1600E-01
    -11.154  0.0000E+00  0.0000E+00  0.1600E-01  0.1600E-01
    -11.030  0.0000E+00  0.0000E+00  0.1600E-01  0.1600E-01
    -10.906  0.0000E+00  0.0000E+00  0.1600E-01  0.1600E-01
    -10.782  0.0000E+00  0.0000E+00  0.1600E-01  0.1600E-01
    -10.659  0.0000E+00  0.0000E+00  0.1600E-01  0.1600E-01
    -10.535  0.0000E+00  0.0000E+00  0.1600E-01  0.1600E-01
    -10.411  0.0000E+00  0.0000E+00  0.1600E-01  0.1600E-01
    -10.287  0.0000E+00  0.0000E+00  0.1600E-01  0.1600E-01
    -10.163  0.0000E+00  0.0000E+00  0.1600E-01  0.1600E-01
    -10.039  0.0000E+00  0.0000E+00  0.1600E-01  0.1600E-01
     -9.916  0.0000E+00  0.0000E+00  0.1600E-01  0.1600E-01
     -9.792  0.0000E+00  0.0000E+00  0.1600E-01  0.1600E-01
     -9.668  0.0000E+00  0.0000E+00  0.1600E-01  0.1600E-01
     -9.544  0.0000E+00  0.0000E+00  0.1600E-01  0.1600E-01
     -9.420  0.0000E+00  0.0000E+00  0.1600E-01  0.1600E-01
     -9.297  0.0000E+00  0.0000E+00  0.1600E-01  0.1600E-01
     -9.173  0.0000E+00  0.0000E+00  0.1600E-01  0.1600E-01
     -9.049  0.0000E+00  0.0000E+00  0.1600E-01  0.1600E-01
     -8.925  0.0000E+00  0.0000E+00  0.1600E-01  0.1600E-01
     -8.801  0.0000E+00  0.0000E+00  0.1600E-01  0.1600E-01
     -8.677  0.0000E+00  0.0000E+00  0.1600E-01  0.1600E-01
     -8.554  0.0000E+00  0.0000E+00  0.1600E-01  0.1600E-01
     -8.430  0.0000E+00  0.0000E+00  0.1600E-01  0.1600E-01
     -8.306  0.0000E+00  0.0000E+00  0.1600E-01  0.1600E-01
     -8.182  0.0000E+00  0.0000E+00  0.1600E-01  0.1600E-01
     -8.058  0.0000E+00  0.0000E+00  0.1600E-01  0.1600E-01
     -7.934  0.0000E+00  0.0000E+00  0.1600E-01  0.1600E-01
     -7.811  0.0000E+00  0.0000E+00  0.1600E-01  0.1600E-01
     -7.687  0.0000E+00  0.0000E+00  0.1600E-01  0.1600E-01
     -7.563  0.0000E+00  0.0000E+00  0.1600E-01  0.1600E-01
     -7.439  0.0000E+00  0.0000E+00  0.1600E-01  0.1600E-01
     -7.315  0.0000E+00  0.0000E+00  0.1600E-01  0.1600E-01
     -7.192  0.0000E+00  0.0000E+00  0.1600E-01  0.1600E-01
     -7.068  0.0000E+00  0.0000E+00  0.1600E-01  0.1600E-01
     -6.944  0.0000E+00  0.0000E+00  0.1600E-01  0.1600E-01
     -6.820  0.0000E+00  0.0000E+00  0.1600E-01  0.1600E-01
     -6.696  0.0000E+00  0.0000E+00  0.1600E-01  0.1600E-01
     -6.572  0.0000E+00  0.0000E+00  0.1600E-01  0.1600E-01
     -6.449  0.0000E+00  0.0000E+00  0.1600E-01  0.1600E-01
     -6.325  0.0000E+00  0.0000E+00  0.1600E-01  0.1600E-01
     -6.201  0.0000E+00  0.0000E+00  0.1600E-01  0.1600E-01
     -6.077  0.0000E+00  0.0000E+00  0.1600E-01  0.1600E-01
     -5.953  0.0000E+00  0.0000E+00  0.1600E-01  0.1600E-01
     -5.830  0.0000E+00  0.0000E+00  0.1600E-01  0.1600E-01
     -5.706  0.0000E+00  0.0000E+00  0.1600E-01  0.1600E-01
     -5.582  0.0000E+00  0.0000E+00  0.1600E-01  0.1600E-01
     -5.458  0.0000E+00  0.0000E+00  0.1600E-01  0.1600E-01
     -5.334  0.0000E+00  0.0000E+00  0.1600E-01  0.1600E-01
     -5.210  0.0000E+00  0.0000E+00  0.1600E-01  0.1600E-01
     -5.087  0.0000E+00  0.0000E+00  0.1600E-01  0.1600E-01
     -4.963  0.0000E+00  0.0000E+00  0.1600E-01  0.1600E-01
     -4.839  0.0000E+00  0.0000E+00  0.1600E-01  0.1600E-01
     -4.715  0.0000E+00  0.0000E+00  0.1600E-01  0.1600E-01
     -4.591  0.0000E+00  0.0000E+00  0.1600E-01  0.1600E-01
     -4.468  0.0000E+00  0.0000E+00  0.1600E-01  0.1600E-01
     -4.344  0.0000E+00  0.0000E+00  0.1600E-01  0.1600E-01
     -4.220  0.0000E+00  0.0000E+00  0.1600E-01  0.1600E-01
     -4.096  0.0000E+00  0.0000E+00  0.1600E-01  0.1600E-01
     -3.972  0.0000E+00  0.0000E+00  0.1600E-01  0.1600E-01
     -3.848  0.0000E+00  0.0000E+00  0.1600E-01  0.1600E-01
     -3.725  0.0000E+00  0.0000E+00  0.1600E-01  0.1600E-01
     -3.601  0.0000E+00  0.0000E+00  0.1600E-01  0.1600E-01
     -3.477  0.0000E+00  0.0000E+00  0.1600E-01  0.1600E-01
     -3.353  0.0000E+00  0.0000E+00  0.1600E-01  0.1600E-01
     -3.229  0.0000E+00  0.0000E+00  0.1600E-01  0.1600E-01
     -3.105  0.2439E-11  0.2439E-11  0.1600E-01  0.1600E-01
     -2.982  0.8248E-04  0.8248E-04  0.1601E-01  0.1601E-01
     -2.858  0.2220E-02  0.2220E-02  0.1629E-01  0.1629E-01
     -2.734  0.5396E-02  0.5396E-02  0.1695E-01  0.1695E-01
     -2.610  0.1263E-01  0.1263E-01  0.1852E-01  0.1852E-01
     -2.486  0.1210E-01  0.1210E-01  0.2002E-01  0.2002E-01
     -2.363  0.1056E-01  0.1056E-01  0.2132E-01  0.2132E-01
     -2.239  0.8837E-02  0.8837E-02  0.2242E-01  0.2242E-01
     -2.115  0.8689E-02  0.8689E-02  0.2349E-01  0.2349E-01
     -1.991  0.9112E-02  0.9112E-02  0.2462E-01  0.2462E-01
     -1.867  0.9007E-02  0.9007E-02  0.2574E-01  0.2574E-01
     -1.743  0.7791E-02  0.7791E-02  0.2670E-01  0.2670E-01
     -1.620  0.8307E-02  0.8307E-02  0.2773E-01  0.2773E-01
     -1.496  0.8862E-02  0.8862E-02  0.2883E-01  0.2883E-01
     -1.372  0.8328E-02  0.8328E-02  0.2986E-01  0.2986E-01
     -1.248  0.9582E-02  0.9582E-02  0.3104E-01  0.3104E-01
     -1.124  0.8493E-02  0.8493E-02  0.3210E-01  0.3210E-01
     -1.001  0.7680E-02  0.7680E-02  0.3305E-01  0.3305E-01
     -0.877  0.5666E-02  0.5666E-02  0.3375E-01  0.3375E-01
     -0.753  0.7774E-02  0.7774E-02  0.3471E-01  0.3471E-01
     -0.629  0.8009E-02  0.8009E-02  0.3570E-01  0.3570E-01
     -0.505  0.7898E-02  0.7898E-02  0.3668E-01  0.3668E-01
     -0.381  0.8608E-02  0.8608E-02  0.3775E-01  0.3775E-01
     -0.258  0.9368E-02  0.9368E-02  0.3891E-01  0.3891E-01
     -0.134  0.9409E-02  0.9409E-02  0.4007E-01  0.4007E-01
     -0.010  0.8421E-02  0.8421E-02  0.4111E-01  0.4111E-01
      0.114  0.1051E-01  0.1051E-01  0.4242E-01  0.4242E-01
      0.238  0.1131E-01  0.1131E-01  0.4382E-01  0.4382E-01
      0.361  0.9941E-02  0.9941E-02  0.4505E-01  0.4505E-01
      0.485  0.1017E-01  0.1017E-01  0.4631E-01  0.4631E-01
      0.609  0.1088E-01  0.1088E-01  0.4765E-01  0.4765E-01
      0.733  0.1149E-01  0.1149E-01  0.4908E-01  0.4908E-01
      0.857  0.1147E-01  0.1147E-01  0.5050E-01  0.5050E-01
      0.981  0.1013E-01  0.1013E-01  0.5175E-01  0.5175E-01
      1.104  0.9813E-02  0.9813E-02  0.5297E-01  0.5297E-01
      1.228  0.9213E-02  0.9213E-02  0.5411E-01  0.5411E-01
      1.352  0.9578E-02  0.9578E-02  0.5529E-01  0.5529E-01
      1.476  0.8244E-02  0.8244E-02  0.5631E-01  0.5631E-01
      1.600  0.1134E-01  0.1134E-01  0.5772E-01  0.5772E-01
      1.724  0.1196E-01  0.1196E-01  0.5920E-01  0.5920E-01
      1.847  0.1017E-01  0.1017E-01  0.6046E-01  0.6046E-01
      1.971  0.1046E-01  0.1046E-01  0.6175E-01  0.6175E-01
      2.095  0.6567E-02  0.6567E-02  0.6257E-01  0.6257E-01
      2.219  0.4486E-02  0.4486E-02  0.6312E-01  0.6312E-01
      2.343  0.3275E-02  0.3275E-02  0.6353E-01  0.6353E-01
      2.466  0.2478E-02  0.2478E-02  0.6383E-01  0.6383E-01
      2.590  0.1336E-02  0.1336E-02  0.6400E-01  0.6400E-01
      2.714  0.1124E-05  0.1124E-05  0.6400E-01  0.6400E-01
      2.838  0.3203E-04  0.3203E-04  0.6400E-01  0.6400E-01
      2.962  0.2019E-03  0.2019E-03  0.6403E-01  0.6403E-01
      3.086  0.1487E-02  0.1487E-02  0.6421E-01  0.6421E-01
      3.209  0.3262E-02  0.3262E-02  0.6462E-01  0.6462E-01
      3.333  0.3483E-02  0.3483E-02  0.6505E-01  0.6505E-01
      3.457  0.5415E-02  0.5415E-02  0.6572E-01  0.6572E-01
      3.581  0.7491E-02  0.7491E-02  0.6665E-01  0.6665E-01
      3.705  0.7625E-02  0.7625E-02  0.6759E-01  0.6759E-01
      3.828  0.3639E-02  0.3639E-02  0.6804E-01  0.6804E-01
      3.952  0.8473E-03  0.8473E-03  0.6815E-01  0.6815E-01
      4.076  0.1659E-02  0.1659E-02  0.6835E-01  0.6835E-01
      4.200  0.2747E-02  0.2747E-02  0.6869E-01  0.6869E-01
      4.324  0.5687E-02  0.5687E-02  0.6940E-01  0.6940E-01
      4.448  0.5856E-02  0.5856E-02  0.7012E-01  0.7012E-01
      4.571  0.7232E-02  0.7232E-02  0.7102E-01  0.7102E-01
      4.695  0.4445E-02  0.4445E-02  0.7157E-01  0.7157E-01
      4.819  0.2982E-02  0.2982E-02  0.7194E-01  0.7194E-01
      4.943  0.1595E-02  0.1595E-02  0.7213E-01  0.7213E-01
      5.067  0.1728E-02  0.1728E-02  0.7235E-01  0.7235E-01
      5.190  0.2169E-02  0.2169E-02  0.7262E-01  0.7262E-01
      5.314  0.2575E-02  0.2575E-02  0.7293E-01  0.7293E-01
      5.438  0.2639E-02  0.2639E-02  0.7326E-01  0.7326E-01
      5.562  0.3655E-02  0.3655E-02  0.7371E-01  0.7371E-01
      5.686  0.6409E-02  0.6409E-02  0.7451E-01  0.7451E-01
      5.810  0.6257E-02  0.6257E-02  0.7528E-01  0.7528E-01
      5.933  0.6061E-02  0.6061E-02  0.7603E-01  0.7603E-01
      6.057  0.7995E-02  0.7995E-02  0.7702E-01  0.7702E-01
      6.181  0.8834E-02  0.8834E-02  0.7812E-01  0.7812E-01
      6.305  0.9616E-02  0.9616E-02  0.7931E-01  0.7931E-01
      6.429  0.9097E-02  0.9097E-02  0.8043E-01  0.8043E-01
      6.553  0.8508E-02  0.8508E-02  0.8149E-01  0.8149E-01
      6.676  0.6880E-02  0.6880E-02  0.8234E-01  0.8234E-01
      6.800  0.5018E-02  0.5018E-02  0.8296E-01  0.8296E-01
      6.924  0.2604E-02  0.2604E-02  0.8328E-01  0.8328E-01
      7.048  0.3744E-02  0.3744E-02  0.8375E-01  0.8375E-01
      7.172  0.5825E-02  0.5825E-02  0.8447E-01  0.8447E-01
      7.295  0.4574E-02  0.4574E-02  0.8503E-01  0.8503E-01
      7.419  0.4284E-02  0.4284E-02  0.8556E-01  0.8556E-01
      7.543  0.3413E-02  0.3413E-02  0.8599E-01  0.8599E-01
      7.667  0.3643E-02  0.3643E-02  0.8644E-01  0.8644E-01
      7.791  0.4134E-02  0.4134E-02  0.8695E-01  0.8695E-01
      7.915  0.4727E-02  0.4727E-02  0.8754E-01  0.8754E-01
      8.038  0.5705E-02  0.5705E-02  0.8824E-01  0.8824E-01
      8.162  0.5766E-02  0.5766E-02  0.8896E-01  0.8896E-01
      8.286  0.5731E-02  0.5731E-02  0.8967E-01  0.8967E-01
      8.410  0.8352E-02  0.8352E-02  0.9070E-01  0.9070E-01
      8.534  0.6834E-02  0.6834E-02  0.9155E-01  0.9155E-01
      8.657  0.4587E-02  0.4587E-02  0.9211E-01  0.9211E-01
      8.781  0.4015E-02  0.4015E-02  0.9261E-01  0.9261E-01
      8.905  0.5304E-02  0.5304E-02  0.9327E-01  0.9327E-01
      9.029  0.6301E-02  0.6301E-02  0.9405E-01  0.9405E-01
      9.153  0.5891E-02  0.5891E-02  0.9478E-01  0.9478E-01
      9.277  0.7365E-02  0.7365E-02  0.9569E-01  0.9569E-01
      9.400  0.6850E-02  0.6850E-02  0.9654E-01  0.9654E-01
      9.524  0.8262E-02  0.8262E-02  0.9756E-01  0.9756E-01
      9.648  0.5748E-02  0.5748E-02  0.9827E-01  0.9827E-01
      9.772  0.2428E-02  0.2428E-02  0.9857E-01  0.9857E-01
      9.896  0.3150E-02  0.3150E-02  0.9896E-01  0.9896E-01
     10.019  0.3742E-02  0.3742E-02  0.9943E-01  0.9943E-01
     10.143  0.2174E-02  0.2174E-02  0.9970E-01  0.9970E-01
     10.267  0.2934E-02  0.2934E-02  0.1001E+00  0.1001E+00
     10.391  0.3850E-02  0.3850E-02  0.1005E+00  0.1005E+00
     10.515  0.3261E-02  0.3261E-02  0.1009E+00  0.1009E+00
     10.639  0.3886E-02  0.3886E-02  0.1014E+00  0.1014E+00
     10.762  0.2912E-02  0.2912E-02  0.1018E+00  0.1018E+00
     10.886  0.3058E-02  0.3058E-02  0.1022E+00  0.1022E+00
     11.010  0.4014E-02  0.4014E-02  0.1027E+00  0.1027E+00
     11.134  0.4367E-02  0.4367E-02  0.1032E+00  0.1032E+00
     11.258  0.5173E-02  0.5173E-02  0.1038E+00  0.1038E+00
     11.382  0.3660E-02  0.3660E-02  0.1043E+00  0.1043E+00
     11.505  0.1066E-02  0.1066E-02  0.1044E+00  0.1044E+00
     11.629  0.3962E-03  0.3962E-03  0.1045E+00  0.1045E+00
     11.753  0.1400E-02  0.1400E-02  0.1046E+00  0.1046E+00
     11.877  0.1079E-02  0.1079E-02  0.1048E+00  0.1048E+00
     12.001  0.5840E-03  0.5840E-03  0.1049E+00  0.1049E+00
     12.124  0.8011E-03  0.8011E-03  0.1050E+00  0.1050E+00
     12.248  0.5536E-03  0.5536E-03  0.1050E+00  0.1050E+00
     12.372  0.1155E-02  0.1155E-02  0.1052E+00  0.1052E+00
     12.496  0.1762E-02  0.1762E-02  0.1054E+00  0.1054E+00
     12.620  0.1190E-02  0.1190E-02  0.1055E+00  0.1055E+00
     12.744  0.7949E-03  0.7949E-03  0.1056E+00  0.1056E+00
     12.867  0.9161E-03  0.9161E-03  0.1057E+00  0.1057E+00
     12.991  0.2459E-02  0.2459E-02  0.1060E+00  0.1060E+00
     13.115  0.1145E-02  0.1145E-02  0.1062E+00  0.1062E+00
     13.239  0.2445E-02  0.2445E-02  0.1065E+00  0.1065E+00
     13.363  0.2558E-02  0.2558E-02  0.1068E+00  0.1068E+00
     13.486  0.2017E-02  0.2017E-02  0.1071E+00  0.1071E+00
     13.610  0.3399E-02  0.3394E-02  0.1075E+00  0.1075E+00
     13.734  0.2942E-02  0.2924E-02  0.1078E+00  0.1078E+00
     13.858  0.3156E-02  0.3099E-02  0.1082E+00  0.1082E+00
     13.982  0.2788E-02  0.2847E-02  0.1086E+00  0.1086E+00
     14.106  0.3457E-02  0.3261E-02  0.1090E+00  0.1090E+00
     14.229  0.3898E-02  0.3581E-02  0.1095E+00  0.1094E+00
     14.353  0.2554E-02  0.2565E-02  0.1098E+00  0.1097E+00
     14.477  0.2338E-02  0.2473E-02  0.1101E+00  0.1100E+00
     14.601  0.2699E-02  0.2371E-02  0.1104E+00  0.1103E+00
     14.725  0.2850E-02  0.3388E-02  0.1108E+00  0.1108E+00
     14.848  0.1530E-02  0.1524E-02  0.1110E+00  0.1109E+00
     14.972  0.1619E-02  0.1610E-02  0.1112E+00  0.1111E+00
     15.096  0.1849E-02  0.1734E-02  0.1114E+00  0.1114E+00
     15.220  0.1156E-02  0.1442E-02  0.1115E+00  0.1115E+00
     15.344  0.9386E-03  0.6400E-03  0.1117E+00  0.1116E+00
     15.468  0.8464E-03  0.1042E-02  0.1118E+00  0.1117E+00
     15.591  0.8293E-03  0.5952E-03  0.1119E+00  0.1118E+00
     15.715  0.6461E-03  0.3464E-03  0.1119E+00  0.1119E+00
     15.839  0.1728E-03  0.4298E-03  0.1120E+00  0.1119E+00
     15.963  0.8539E-04  0.1193E-03  0.1120E+00  0.1119E+00
     16.087  0.8248E-06  0.8309E-04  0.1120E+00  0.1119E+00
     16.211  0.9963E-04  0.7891E-11  0.1120E+00  0.1119E+00
     16.334  0.8791E-04  0.0000E+00  0.1120E+00  0.1119E+00
     16.458  0.6785E-09  0.3677E-08  0.1120E+00  0.1119E+00
     16.582  0.0000E+00  0.9139E-04  0.1120E+00  0.1120E+00
     16.706  0.0000E+00  0.2788E-05  0.1120E+00  0.1120E+00
     16.830  0.0000E+00  0.0000E+00  0.1120E+00  0.1120E+00
     16.953  0.0000E+00  0.0000E+00  0.1120E+00  0.1120E+00
     17.077  0.0000E+00  0.0000E+00  0.1120E+00  0.1120E+00
     17.201  0.0000E+00  0.6504E-16  0.1120E+00  0.1120E+00
     17.325  0.0000E+00  0.9968E-05  0.1120E+00  0.1120E+00
     17.449  0.0000E+00  0.8455E-04  0.1120E+00  0.1120E+00
     17.573  0.0000E+00  0.1344E-03  0.1120E+00  0.1120E+00
     17.696  0.0000E+00  0.5362E-04  0.1120E+00  0.1120E+00
     17.820  0.0000E+00  0.0000E+00  0.1120E+00  0.1120E+00
     17.944  0.0000E+00  0.0000E+00  0.1120E+00  0.1120E+00
     18.068  0.0000E+00  0.0000E+00  0.1120E+00  0.1120E+00
     18.192  0.0000E+00  0.0000E+00  0.1120E+00  0.1120E+00
     18.315  0.0000E+00  0.0000E+00  0.1120E+00  0.1120E+00
     18.439  0.0000E+00  0.8365E-19  0.1120E+00  0.1120E+00
     18.563  0.0000E+00  0.1591E-05  0.1120E+00  0.1120E+00
     18.687  0.0000E+00  0.9258E-04  0.1120E+00  0.1120E+00
     18.811  0.0000E+00  0.9591E-08  0.1120E+00  0.1120E+00
     18.935  0.0000E+00  0.0000E+00  0.1120E+00  0.1120E+00
     19.058  0.0000E+00  0.0000E+00  0.1120E+00  0.1120E+00
     19.182  0.0000E+00  0.0000E+00  0.1120E+00  0.1120E+00
     19.306  0.0000E+00  0.0000E+00  0.1120E+00  0.1120E+00
     19.430  0.0000E+00  0.0000E+00  0.1120E+00  0.1120E+00
     19.554  0.0000E+00  0.0000E+00  0.1120E+00  0.1120E+00
     19.677  0.0000E+00  0.0000E+00  0.1120E+00  0.1120E+00
     19.801  0.0000E+00  0.0000E+00  0.1120E+00  0.1120E+00
     19.925  0.0000E+00  0.0000E+00  0.1120E+00  0.1120E+00
     20.049  0.0000E+00  0.0000E+00  0.1120E+00  0.1120E+00
     20.173  0.0000E+00  0.0000E+00  0.1120E+00  0.1120E+00
     20.297  0.0000E+00  0.0000E+00  0.1120E+00  0.1120E+00
