 running on   64 total cores
 distrk:  each k-point on   64 cores,    1 groups
 distr:  one band on    8 cores,    8 groups
 using from now: INCAR     
 vasp.5.4.1 05Feb16 (build Apr 23 2022 14:15:44) complex                        
  
 POSCAR found type information on POSCAR  Mo O  Li
 POSCAR found :  3 types and      13 ions
 scaLAPACK will be used
 LDA part: xc-table for Pade appr. of Perdew
 POSCAR found type information on POSCAR  Mo O  Li
 POSCAR found :  3 types and      13 ions
 POSCAR, INCAR and KPOINTS ok, starting setup
 WARNING: small aliasing (wrap around) errors must be expected
 FFT: planning ...
 WAVECAR not read
 WARNING: random wavefunctions but no delay for mixing, default for NELMDL
 entering main loop
       N       E                     dE             d eps       ncg     rms          rms(c)
RMM:   1     0.888649486242E+03    0.88865E+03   -0.29838E+04 19264   0.117E+03
RMM:   2     0.170533292815E+03   -0.71812E+03   -0.71671E+03 19264   0.297E+02
RMM:   3    -0.425594246892E+02   -0.21309E+03   -0.19280E+03 19264   0.144E+02
RMM:   4    -0.105424230816E+03   -0.62865E+02   -0.47013E+02 19264   0.817E+01
RMM:   5    -0.120629351561E+03   -0.15205E+02   -0.11497E+02 19264   0.383E+01
RMM:   6    -0.124381252943E+03   -0.37519E+01   -0.30386E+01 19264   0.191E+01
RMM:   7    -0.125438705203E+03   -0.10575E+01   -0.90492E+00 19264   0.943E+00
RMM:   8    -0.125775694596E+03   -0.33699E+00   -0.29511E+00 19264   0.498E+00
RMM:   9    -0.125956175064E+03   -0.18048E+00   -0.16897E+00 39422   0.261E+00
RMM:  10    -0.125964149885E+03   -0.79748E-02   -0.16914E-01 39875   0.624E-01
RMM:  11    -0.125963838120E+03    0.31177E-03   -0.66855E-03 40150   0.154E-01
RMM:  12    -0.125963858850E+03   -0.20730E-04   -0.54231E-04 37274   0.345E-02    0.782E+01
RMM:  13    -0.110673855339E+03    0.15290E+02   -0.72076E+01 38528   0.282E+01    0.249E+01
RMM:  14    -0.109465433029E+03    0.12084E+01   -0.56768E+00 38528   0.899E+00    0.189E+01
RMM:  15    -0.109314048929E+03    0.15138E+00   -0.11721E+00 38528   0.357E+00    0.343E+00
RMM:  16    -0.109104158076E+03    0.20989E+00   -0.18952E-01 38528   0.126E+00    0.159E+00
RMM:  17    -0.109077595364E+03    0.26563E-01   -0.32316E-02 38528   0.586E-01    0.645E-01
RMM:  18    -0.109072322342E+03    0.52730E-02   -0.56922E-03 38528   0.235E-01    0.363E-01
RMM:  19    -0.109071711010E+03    0.61133E-03   -0.47269E-03 38528   0.253E-01    0.198E-01
RMM:  20    -0.109071998927E+03   -0.28792E-03   -0.10446E-03 38528   0.124E-01    0.672E-02
RMM:  21    -0.109072067172E+03   -0.68245E-04   -0.79696E-05 38528   0.311E-02    0.537E-02
RMM:  22    -0.109072088603E+03   -0.21431E-04   -0.36011E-05 38528   0.250E-02    0.204E-02
RMM:  23    -0.109072108849E+03   -0.20246E-04   -0.22525E-05 38528   0.200E-02    0.920E-03
RMM:  24    -0.109072109603E+03   -0.75405E-06   -0.27805E-06 27992   0.691E-03
   1 F= -.11247237E+03 E0= -.11247185E+03  d E =-.112472E+03  mag=     0.0001
 curvature:   0.00 expect dE= 0.000E+00 dE for cont linesearch  0.000E+00
 trial: gam= 0.00000 g(F)=  0.246E-02 g(S)=  0.153E-03 ort = 0.000E+00 (trialstep = 0.100E+01)
 search vector abs. value=  0.262E-02
 bond charge predicted
       N       E                     dE             d eps       ncg     rms          rms(c)
RMM:   1    -0.109072698904E+03   -0.59006E-03   -0.52926E-01 38528   0.283E+00    0.182E-01
RMM:   2    -0.109071853908E+03    0.84500E-03   -0.21544E-03 38528   0.183E-01    0.136E-01
RMM:   3    -0.109071769368E+03    0.84541E-04   -0.12369E-04 38528   0.354E-02    0.910E-02
RMM:   4    -0.109071706001E+03    0.63366E-04   -0.10194E-04 38528   0.365E-02    0.367E-02
RMM:   5    -0.109071692696E+03    0.13305E-04   -0.27609E-05 38528   0.185E-02    0.177E-02
RMM:   6    -0.109071688500E+03    0.41961E-05   -0.26369E-06 27977   0.508E-03    0.791E-03
RMM:   7    -0.109071687973E+03    0.52693E-06   -0.82397E-07 23504   0.347E-03
   2 F= -.11247330E+03 E0= -.11247280E+03  d E =-.923500E-03  mag=    -0.0000
 trial-energy change:   -0.000923  1 .order   -0.000913   -0.002616    0.000790
 step:   0.7713(harm=  0.7681)  dis= 0.00314  next Energy=  -112.473386 (dE=-0.101E-02)
 bond charge predicted
       N       E                     dE             d eps       ncg     rms          rms(c)
RMM:   1    -0.109072138471E+03   -0.44997E-03   -0.27616E-02 38528   0.646E-01    0.416E-02
RMM:   2    -0.109072092766E+03    0.45705E-04   -0.10894E-04 38528   0.411E-02    0.308E-02
RMM:   3    -0.109072088729E+03    0.40373E-05   -0.61956E-06 35276   0.797E-03    0.206E-02
RMM:   4    -0.109072085018E+03    0.37105E-05   -0.52776E-06 35870   0.837E-03    0.823E-03
RMM:   5    -0.109072084046E+03    0.97215E-06   -0.13060E-06 24767   0.428E-03
   3 F= -.11247338E+03 E0= -.11247288E+03  d E =-.101157E-02  mag=     0.0000
 curvature:  -0.38 expect dE=-0.207E-03 dE for cont linesearch -0.356E-07
 trial: gam= 0.21247 g(F)=  0.308E-03 g(S)=  0.232E-03 ort =-0.156E-04 (trialstep = 0.954E+00)
 search vector abs. value=  0.652E-03
 bond charge predicted
       N       E                     dE             d eps       ncg     rms          rms(c)
RMM:   1    -0.109075319249E+03   -0.32342E-02   -0.11070E-01 38528   0.140E+00    0.177E-01
RMM:   2    -0.109074905165E+03    0.41408E-03   -0.67076E-04 38528   0.104E-01    0.116E-01
RMM:   3    -0.109074833347E+03    0.71818E-04   -0.93662E-05 38528   0.331E-02    0.469E-02
RMM:   4    -0.109074829457E+03    0.38894E-05   -0.63135E-05 38528   0.266E-02    0.393E-02
RMM:   5    -0.109074803115E+03    0.26342E-04   -0.14420E-05 38528   0.121E-02    0.106E-02
RMM:   6    -0.109074801443E+03    0.16722E-05   -0.10750E-06 26117   0.332E-03    0.645E-03
RMM:   7    -0.109074800512E+03    0.93128E-06   -0.16363E-06 22501   0.522E-03
   4 F= -.11247361E+03 E0= -.11247312E+03  d E =-.230808E-03  mag=     0.0000
 trial-energy change:   -0.000231  1 .order   -0.000239   -0.000512    0.000035
 step:   0.8873(harm=  0.8926)  dis= 0.00120  next Energy=  -112.473616 (dE=-0.232E-03)
 bond charge predicted
       N       E                     dE             d eps       ncg     rms          rms(c)
RMM:   1    -0.109074629463E+03    0.17198E-03   -0.54983E-04 38528   0.989E-02    0.122E-02
RMM:   2    -0.109074627788E+03    0.16743E-05   -0.29518E-06 30113   0.715E-03    0.814E-03
RMM:   3    -0.109074627714E+03    0.74440E-07   -0.61914E-07 20685   0.289E-03
   5 F= -.11247362E+03 E0= -.11247312E+03  d E =-.232251E-03  mag=    -0.0000
 curvature:  -0.54 expect dE=-0.122E-03 dE for cont linesearch -0.371E-06
 trial: gam= 0.45309 g(F)=  0.148E-03 g(S)=  0.795E-04 ort =-0.212E-04 (trialstep = 0.941E+00)
 search vector abs. value=  0.342E-03
 bond charge predicted
       N       E                     dE             d eps       ncg     rms          rms(c)
RMM:   1    -0.109073210766E+03    0.14170E-02   -0.60980E-02 38528   0.103E+00    0.126E-01
RMM:   2    -0.109073035749E+03    0.17502E-03   -0.44989E-04 38528   0.820E-02    0.103E-01
RMM:   3    -0.109073014038E+03    0.21711E-04   -0.23985E-05 38528   0.165E-02    0.528E-02
RMM:   4    -0.109073024306E+03   -0.10268E-04   -0.28467E-05 38528   0.174E-02    0.353E-02
RMM:   5    -0.109073005018E+03    0.19288E-04   -0.11689E-05 38528   0.110E-02    0.765E-03
RMM:   6    -0.109073003859E+03    0.11587E-05   -0.65330E-07 23429   0.254E-03    0.298E-03
RMM:   7    -0.109073004059E+03   -0.19984E-06   -0.24094E-07 21108   0.203E-03
   6 F= -.11247368E+03 E0= -.11247319E+03  d E =-.686035E-04  mag=    -0.0000
 trial-energy change:   -0.000069  1 .order   -0.000060   -0.000205    0.000085
 step:   0.6975(harm=  0.6662)  dis= 0.00072  next Energy=  -112.473696 (dE=-0.794E-04)
 bond charge predicted
       N       E                     dE             d eps       ncg     rms          rms(c)
RMM:   1    -0.109073468684E+03   -0.46483E-03   -0.40727E-03 38528   0.265E-01    0.323E-02
RMM:   2    -0.109073455680E+03    0.13004E-04   -0.29011E-05 38528   0.209E-02    0.261E-02
RMM:   3    -0.109073454169E+03    0.15109E-05   -0.15277E-06 27108   0.427E-03    0.133E-02
RMM:   4    -0.109073454400E+03   -0.23064E-06   -0.18608E-06 26966   0.466E-03
   7 F= -.11247370E+03 E0= -.11247320E+03  d E =-.811104E-04  mag=    -0.0000
 curvature:  -0.52 expect dE=-0.622E-04 dE for cont linesearch -0.401E-06
 trial: gam= 0.56385 g(F)=  0.595E-04 g(S)=  0.609E-04 ort =-0.163E-04 (trialstep = 0.892E+00)
 search vector abs. value=  0.211E-03
 bond charge predicted
       N       E                     dE             d eps       ncg     rms          rms(c)
RMM:   1    -0.109074722360E+03   -0.12682E-02   -0.37392E-02 38528   0.797E-01    0.652E-02
RMM:   2    -0.109074615239E+03    0.10712E-03   -0.24953E-04 38528   0.599E-02    0.487E-02
RMM:   3    -0.109074605540E+03    0.96992E-05   -0.13233E-05 36971   0.117E-02    0.264E-02
RMM:   4    -0.109074602343E+03    0.31975E-05   -0.85575E-06 35781   0.947E-03    0.181E-02
RMM:   5    -0.109074598061E+03    0.42812E-05   -0.50345E-06 37737   0.814E-03    0.770E-03
RMM:   6    -0.109074597013E+03    0.10483E-05   -0.51621E-07 21747   0.239E-03    0.299E-03
RMM:   7    -0.109074596774E+03    0.23911E-06   -0.14187E-07 20394   0.164E-03
   8 F= -.11247375E+03 E0= -.11247325E+03  d E =-.483700E-04  mag=    -0.0000
 trial-energy change:   -0.000048  1 .order   -0.000055   -0.000099   -0.000011
 step:   1.2168(harm=  1.0071)  dis= 0.00114  next Energy=  -112.473747 (dE=-0.501E-04)
 reached required accuracy - stopping structural energy minimisation
