  34  34   0   0
  0.9943856E+01  0.4948674E-09  0.5466846E-09  0.1249719E-08  0.5000000E-15
  1.000000000000000E-004
  CAR 
 unknown system                          
     15.26488603    -17.50173725  301      3.15488818      1.00000000
    -17.502  0.0000E+00  0.0000E+00  0.0000E+00  0.0000E+00
    -17.393  0.0000E+00  0.0000E+00  0.0000E+00  0.0000E+00
    -17.283  0.0000E+00  0.0000E+00  0.0000E+00  0.0000E+00
    -17.174  0.0000E+00  0.0000E+00  0.0000E+00  0.0000E+00
    -17.065  0.0000E+00  0.0000E+00  0.0000E+00  0.0000E+00
    -16.956  0.0000E+00  0.0000E+00  0.0000E+00  0.0000E+00
    -16.846  0.0000E+00  0.0000E+00  0.0000E+00  0.0000E+00
    -16.737  0.0000E+00  0.0000E+00  0.0000E+00  0.0000E+00
    -16.628  0.0000E+00  0.0000E+00  0.0000E+00  0.0000E+00
    -16.519  0.0000E+00  0.0000E+00  0.0000E+00  0.0000E+00
    -16.410  0.0000E+00  0.0000E+00  0.0000E+00  0.0000E+00
    -16.300  0.0000E+00  0.0000E+00  0.0000E+00  0.0000E+00
    -16.191  0.0000E+00  0.0000E+00  0.0000E+00  0.0000E+00
    -16.082  0.1125E-03  0.1343E-03  0.1229E-04  0.1466E-04
    -15.973  0.2250E+01  0.2327E+01  0.2458E+00  0.2542E+00
    -15.863  0.1290E+02  0.1290E+02  0.1654E+01  0.1663E+01
    -15.754  0.3164E+01  0.3088E+01  0.2000E+01  0.2000E+01
    -15.645  0.1247E-02  0.1367E-02  0.2000E+01  0.2000E+01
    -15.536  0.1644E+02  0.1672E+02  0.3796E+01  0.3826E+01
    -15.427  0.3713E+02  0.3694E+02  0.7851E+01  0.7860E+01
    -15.317  0.1365E+01  0.1279E+01  0.8000E+01  0.8000E+01
    -15.208  0.9360E-01  0.2257E+00  0.8010E+01  0.8025E+01
    -15.099  0.1105E+02  0.1214E+02  0.9217E+01  0.9351E+01
    -14.990  0.6874E+01  0.5834E+01  0.9968E+01  0.9988E+01
    -14.880  0.1873E+01  0.2528E+01  0.1017E+02  0.1026E+02
    -14.771  0.1514E+02  0.1547E+02  0.1183E+02  0.1195E+02
    -14.662  0.1242E+02  0.9816E+01  0.1318E+02  0.1303E+02
    -14.553  0.2564E+02  0.2670E+02  0.1598E+02  0.1594E+02
    -14.444  0.1541E+00  0.5336E+00  0.1600E+02  0.1600E+02
    -14.334  0.0000E+00  0.0000E+00  0.1600E+02  0.1600E+02
    -14.225  0.0000E+00  0.0000E+00  0.1600E+02  0.1600E+02
    -14.116  0.0000E+00  0.0000E+00  0.1600E+02  0.1600E+02
    -14.007  0.0000E+00  0.0000E+00  0.1600E+02  0.1600E+02
    -13.897  0.0000E+00  0.0000E+00  0.1600E+02  0.1600E+02
    -13.788  0.0000E+00  0.0000E+00  0.1600E+02  0.1600E+02
    -13.679  0.0000E+00  0.0000E+00  0.1600E+02  0.1600E+02
    -13.570  0.0000E+00  0.0000E+00  0.1600E+02  0.1600E+02
    -13.461  0.0000E+00  0.0000E+00  0.1600E+02  0.1600E+02
    -13.351  0.0000E+00  0.0000E+00  0.1600E+02  0.1600E+02
    -13.242  0.0000E+00  0.0000E+00  0.1600E+02  0.1600E+02
    -13.133  0.0000E+00  0.0000E+00  0.1600E+02  0.1600E+02
    -13.024  0.0000E+00  0.0000E+00  0.1600E+02  0.1600E+02
    -12.914  0.0000E+00  0.0000E+00  0.1600E+02  0.1600E+02
    -12.805  0.0000E+00  0.0000E+00  0.1600E+02  0.1600E+02
    -12.696  0.0000E+00  0.0000E+00  0.1600E+02  0.1600E+02
    -12.587  0.0000E+00  0.0000E+00  0.1600E+02  0.1600E+02
    -12.478  0.0000E+00  0.0000E+00  0.1600E+02  0.1600E+02
    -12.368  0.0000E+00  0.0000E+00  0.1600E+02  0.1600E+02
    -12.259  0.0000E+00  0.0000E+00  0.1600E+02  0.1600E+02
    -12.150  0.0000E+00  0.0000E+00  0.1600E+02  0.1600E+02
    -12.041  0.0000E+00  0.0000E+00  0.1600E+02  0.1600E+02
    -11.931  0.0000E+00  0.0000E+00  0.1600E+02  0.1600E+02
    -11.822  0.0000E+00  0.0000E+00  0.1600E+02  0.1600E+02
    -11.713  0.0000E+00  0.0000E+00  0.1600E+02  0.1600E+02
    -11.604  0.0000E+00  0.0000E+00  0.1600E+02  0.1600E+02
    -11.495  0.0000E+00  0.0000E+00  0.1600E+02  0.1600E+02
    -11.385  0.0000E+00  0.0000E+00  0.1600E+02  0.1600E+02
    -11.276  0.0000E+00  0.0000E+00  0.1600E+02  0.1600E+02
    -11.167  0.0000E+00  0.0000E+00  0.1600E+02  0.1600E+02
    -11.058  0.0000E+00  0.0000E+00  0.1600E+02  0.1600E+02
    -10.948  0.0000E+00  0.0000E+00  0.1600E+02  0.1600E+02
    -10.839  0.0000E+00  0.0000E+00  0.1600E+02  0.1600E+02
    -10.730  0.0000E+00  0.0000E+00  0.1600E+02  0.1600E+02
    -10.621  0.0000E+00  0.0000E+00  0.1600E+02  0.1600E+02
    -10.512  0.0000E+00  0.0000E+00  0.1600E+02  0.1600E+02
    -10.402  0.0000E+00  0.0000E+00  0.1600E+02  0.1600E+02
    -10.293  0.0000E+00  0.0000E+00  0.1600E+02  0.1600E+02
    -10.184  0.0000E+00  0.0000E+00  0.1600E+02  0.1600E+02
    -10.075  0.0000E+00  0.0000E+00  0.1600E+02  0.1600E+02
     -9.965  0.0000E+00  0.0000E+00  0.1600E+02  0.1600E+02
     -9.856  0.0000E+00  0.0000E+00  0.1600E+02  0.1600E+02
     -9.747  0.0000E+00  0.0000E+00  0.1600E+02  0.1600E+02
     -9.638  0.0000E+00  0.0000E+00  0.1600E+02  0.1600E+02
     -9.529  0.0000E+00  0.0000E+00  0.1600E+02  0.1600E+02
     -9.419  0.0000E+00  0.0000E+00  0.1600E+02  0.1600E+02
     -9.310  0.0000E+00  0.0000E+00  0.1600E+02  0.1600E+02
     -9.201  0.0000E+00  0.0000E+00  0.1600E+02  0.1600E+02
     -9.092  0.0000E+00  0.0000E+00  0.1600E+02  0.1600E+02
     -8.982  0.0000E+00  0.0000E+00  0.1600E+02  0.1600E+02
     -8.873  0.0000E+00  0.0000E+00  0.1600E+02  0.1600E+02
     -8.764  0.0000E+00  0.0000E+00  0.1600E+02  0.1600E+02
     -8.655  0.0000E+00  0.0000E+00  0.1600E+02  0.1600E+02
     -8.546  0.0000E+00  0.0000E+00  0.1600E+02  0.1600E+02
     -8.436  0.0000E+00  0.0000E+00  0.1600E+02  0.1600E+02
     -8.327  0.0000E+00  0.0000E+00  0.1600E+02  0.1600E+02
     -8.218  0.0000E+00  0.0000E+00  0.1600E+02  0.1600E+02
     -8.109  0.0000E+00  0.0000E+00  0.1600E+02  0.1600E+02
     -7.999  0.0000E+00  0.0000E+00  0.1600E+02  0.1600E+02
     -7.890  0.0000E+00  0.0000E+00  0.1600E+02  0.1600E+02
     -7.781  0.0000E+00  0.0000E+00  0.1600E+02  0.1600E+02
     -7.672  0.0000E+00  0.0000E+00  0.1600E+02  0.1600E+02
     -7.563  0.0000E+00  0.0000E+00  0.1600E+02  0.1600E+02
     -7.453  0.0000E+00  0.0000E+00  0.1600E+02  0.1600E+02
     -7.344  0.0000E+00  0.0000E+00  0.1600E+02  0.1600E+02
     -7.235  0.0000E+00  0.0000E+00  0.1600E+02  0.1600E+02
     -7.126  0.0000E+00  0.0000E+00  0.1600E+02  0.1600E+02
     -7.016  0.0000E+00  0.0000E+00  0.1600E+02  0.1600E+02
     -6.907  0.0000E+00  0.0000E+00  0.1600E+02  0.1600E+02
     -6.798  0.0000E+00  0.0000E+00  0.1600E+02  0.1600E+02
     -6.689  0.0000E+00  0.0000E+00  0.1600E+02  0.1600E+02
     -6.580  0.0000E+00  0.0000E+00  0.1600E+02  0.1600E+02
     -6.470  0.0000E+00  0.0000E+00  0.1600E+02  0.1600E+02
     -6.361  0.0000E+00  0.0000E+00  0.1600E+02  0.1600E+02
     -6.252  0.0000E+00  0.0000E+00  0.1600E+02  0.1600E+02
     -6.143  0.0000E+00  0.0000E+00  0.1600E+02  0.1600E+02
     -6.033  0.0000E+00  0.0000E+00  0.1600E+02  0.1600E+02
     -5.924  0.0000E+00  0.0000E+00  0.1600E+02  0.1600E+02
     -5.815  0.0000E+00  0.0000E+00  0.1600E+02  0.1600E+02
     -5.706  0.0000E+00  0.0000E+00  0.1600E+02  0.1600E+02
     -5.597  0.0000E+00  0.0000E+00  0.1600E+02  0.1600E+02
     -5.487  0.0000E+00  0.0000E+00  0.1600E+02  0.1600E+02
     -5.378  0.0000E+00  0.0000E+00  0.1600E+02  0.1600E+02
     -5.269  0.0000E+00  0.0000E+00  0.1600E+02  0.1600E+02
     -5.160  0.0000E+00  0.0000E+00  0.1600E+02  0.1600E+02
     -5.050  0.0000E+00  0.0000E+00  0.1600E+02  0.1600E+02
     -4.941  0.0000E+00  0.0000E+00  0.1600E+02  0.1600E+02
     -4.832  0.0000E+00  0.0000E+00  0.1600E+02  0.1600E+02
     -4.723  0.0000E+00  0.0000E+00  0.1600E+02  0.1600E+02
     -4.614  0.0000E+00  0.0000E+00  0.1600E+02  0.1600E+02
     -4.504  0.0000E+00  0.0000E+00  0.1600E+02  0.1600E+02
     -4.395  0.0000E+00  0.0000E+00  0.1600E+02  0.1600E+02
     -4.286  0.0000E+00  0.0000E+00  0.1600E+02  0.1600E+02
     -4.177  0.0000E+00  0.0000E+00  0.1600E+02  0.1600E+02
     -4.067  0.0000E+00  0.0000E+00  0.1600E+02  0.1600E+02
     -3.958  0.0000E+00  0.0000E+00  0.1600E+02  0.1600E+02
     -3.849  0.0000E+00  0.0000E+00  0.1600E+02  0.1600E+02
     -3.740  0.0000E+00  0.0000E+00  0.1600E+02  0.1600E+02
     -3.631  0.0000E+00  0.0000E+00  0.1600E+02  0.1600E+02
     -3.521  0.0000E+00  0.0000E+00  0.1600E+02  0.1600E+02
     -3.412  0.0000E+00  0.0000E+00  0.1600E+02  0.1600E+02
     -3.303  0.0000E+00  0.0000E+00  0.1600E+02  0.1600E+02
     -3.194  0.7547E-09  0.2382E-09  0.1600E+02  0.1600E+02
     -3.084  0.3954E+00  0.2718E+00  0.1604E+02  0.1603E+02
     -2.975  0.4230E+01  0.4305E+01  0.1651E+02  0.1650E+02
     -2.866  0.1265E+02  0.8518E+01  0.1789E+02  0.1743E+02
     -2.757  0.1618E+02  0.1875E+02  0.1965E+02  0.1948E+02
     -2.648  0.1475E+02  0.1475E+02  0.2126E+02  0.2109E+02
     -2.538  0.1457E+02  0.9830E+01  0.2286E+02  0.2216E+02
     -2.429  0.1580E+02  0.1830E+02  0.2458E+02  0.2416E+02
     -2.320  0.1134E+02  0.1261E+02  0.2582E+02  0.2554E+02
     -2.211  0.1182E+02  0.6080E+01  0.2711E+02  0.2620E+02
     -2.101  0.1472E+02  0.9780E+01  0.2872E+02  0.2727E+02
     -1.992  0.1361E+02  0.8982E+01  0.3021E+02  0.2825E+02
     -1.883  0.1037E+02  0.1420E+02  0.3134E+02  0.2980E+02
     -1.774  0.1408E+02  0.1367E+02  0.3288E+02  0.3129E+02
     -1.665  0.1444E+02  0.1338E+02  0.3445E+02  0.3276E+02
     -1.555  0.1105E+02  0.1232E+02  0.3566E+02  0.3410E+02
     -1.446  0.1381E+02  0.1320E+02  0.3717E+02  0.3555E+02
     -1.337  0.7099E+01  0.1102E+02  0.3795E+02  0.3675E+02
     -1.228  0.7346E+01  0.8373E+01  0.3875E+02  0.3766E+02
     -1.118  0.1697E+02  0.9119E+01  0.4060E+02  0.3866E+02
     -1.009  0.1595E+02  0.1440E+02  0.4234E+02  0.4023E+02
     -0.900  0.1472E+02  0.1539E+02  0.4395E+02  0.4191E+02
     -0.791  0.1607E+02  0.1765E+02  0.4571E+02  0.4384E+02
     -0.682  0.1238E+02  0.1863E+02  0.4706E+02  0.4588E+02
     -0.572  0.1383E+02  0.1737E+02  0.4857E+02  0.4777E+02
     -0.463  0.1518E+02  0.1569E+02  0.5023E+02  0.4949E+02
     -0.354  0.1556E+02  0.1454E+02  0.5193E+02  0.5107E+02
     -0.245  0.2086E+02  0.2265E+02  0.5420E+02  0.5355E+02
     -0.135  0.1836E+02  0.2153E+02  0.5621E+02  0.5590E+02
     -0.026  0.1095E+02  0.1174E+02  0.5741E+02  0.5718E+02
      0.083  0.5164E+01  0.6580E+01  0.5797E+02  0.5790E+02
      0.192  0.8567E+01  0.7489E+01  0.5891E+02  0.5872E+02
      0.301  0.1977E+02  0.1892E+02  0.6107E+02  0.6079E+02
      0.411  0.1799E+02  0.1913E+02  0.6303E+02  0.6287E+02
      0.520  0.7468E+01  0.9023E+01  0.6385E+02  0.6386E+02
      0.629  0.1410E+01  0.1278E+01  0.6400E+02  0.6400E+02
      0.738  0.3480E-03  0.9313E-04  0.6400E+02  0.6400E+02
      0.848  0.0000E+00  0.0000E+00  0.6400E+02  0.6400E+02
      0.957  0.0000E+00  0.0000E+00  0.6400E+02  0.6400E+02
      1.066  0.0000E+00  0.0000E+00  0.6400E+02  0.6400E+02
      1.175  0.0000E+00  0.0000E+00  0.6400E+02  0.6400E+02
      1.284  0.0000E+00  0.0000E+00  0.6400E+02  0.6400E+02
      1.394  0.0000E+00  0.0000E+00  0.6400E+02  0.6400E+02
      1.503  0.0000E+00  0.0000E+00  0.6400E+02  0.6400E+02
      1.612  0.0000E+00  0.0000E+00  0.6400E+02  0.6400E+02
      1.721  0.0000E+00  0.0000E+00  0.6400E+02  0.6400E+02
      1.831  0.0000E+00  0.0000E+00  0.6400E+02  0.6400E+02
      1.940  0.0000E+00  0.0000E+00  0.6400E+02  0.6400E+02
      2.049  0.0000E+00  0.0000E+00  0.6400E+02  0.6400E+02
      2.158  0.0000E+00  0.0000E+00  0.6400E+02  0.6400E+02
      2.267  0.0000E+00  0.0000E+00  0.6400E+02  0.6400E+02
      2.377  0.0000E+00  0.0000E+00  0.6400E+02  0.6400E+02
      2.486  0.0000E+00  0.0000E+00  0.6400E+02  0.6400E+02
      2.595  0.0000E+00  0.0000E+00  0.6400E+02  0.6400E+02
      2.704  0.4703E-07  0.0000E+00  0.6400E+02  0.6400E+02
      2.814  0.1130E+01  0.0000E+00  0.6412E+02  0.6400E+02
      2.923  0.1363E+02  0.0000E+00  0.6561E+02  0.6400E+02
      3.032  0.3551E+01  0.0000E+00  0.6600E+02  0.6400E+02
      3.141  0.2196E-02  0.0000E+00  0.6600E+02  0.6400E+02
      3.250  0.0000E+00  0.0000E+00  0.6600E+02  0.6400E+02
      3.360  0.0000E+00  0.0000E+00  0.6600E+02  0.6400E+02
      3.469  0.0000E+00  0.0000E+00  0.6600E+02  0.6400E+02
      3.578  0.0000E+00  0.0000E+00  0.6600E+02  0.6400E+02
      3.687  0.0000E+00  0.0000E+00  0.6600E+02  0.6400E+02
      3.797  0.0000E+00  0.0000E+00  0.6600E+02  0.6400E+02
      3.906  0.0000E+00  0.0000E+00  0.6600E+02  0.6400E+02
      4.015  0.5540E-04  0.1617E-05  0.6600E+02  0.6400E+02
      4.124  0.1656E+01  0.9516E+00  0.6618E+02  0.6410E+02
      4.233  0.1887E+02  0.1760E+02  0.6824E+02  0.6603E+02
      4.343  0.1587E+02  0.1754E+02  0.6998E+02  0.6794E+02
      4.452  0.2276E+00  0.5363E+00  0.7000E+02  0.6800E+02
      4.561  0.8439E+01  0.8215E-08  0.7092E+02  0.6800E+02
      4.670  0.9861E+01  0.4447E-04  0.7200E+02  0.6800E+02
      4.780  0.2441E+01  0.1715E+01  0.7227E+02  0.6819E+02
      4.889  0.9508E+01  0.9447E+01  0.7330E+02  0.6922E+02
      4.998  0.1089E+02  0.9237E+01  0.7449E+02  0.7023E+02
      5.107  0.1490E+02  0.1532E+02  0.7612E+02  0.7190E+02
      5.216  0.1390E+02  0.1230E+02  0.7764E+02  0.7324E+02
      5.326  0.1664E+02  0.1997E+02  0.7946E+02  0.7543E+02
      5.435  0.7686E+01  0.2571E+01  0.8030E+02  0.7571E+02
      5.544  0.1213E+02  0.2686E+01  0.8162E+02  0.7600E+02
      5.653  0.1037E+02  0.2653E+01  0.8275E+02  0.7629E+02
      5.763  0.1007E+02  0.8905E+01  0.8385E+02  0.7726E+02
      5.872  0.1341E+01  0.6968E+01  0.8400E+02  0.7802E+02
      5.981  0.3376E-05  0.9443E+01  0.8400E+02  0.7905E+02
      6.090  0.0000E+00  0.1230E+02  0.8400E+02  0.8040E+02
      6.199  0.0000E+00  0.8365E+01  0.8400E+02  0.8131E+02
      6.309  0.0000E+00  0.6947E+01  0.8400E+02  0.8207E+02
      6.418  0.0000E+00  0.1556E+02  0.8400E+02  0.8377E+02
      6.527  0.9479E-06  0.2103E+01  0.8400E+02  0.8400E+02
      6.636  0.1464E+00  0.6355E-02  0.8402E+02  0.8400E+02
      6.746  0.6732E-01  0.1843E+00  0.8402E+02  0.8402E+02
      6.855  0.3585E+00  0.3515E+00  0.8406E+02  0.8406E+02
      6.964  0.6237E-04  0.3005E-01  0.8406E+02  0.8406E+02
      7.073  0.2620E+00  0.1351E-01  0.8409E+02  0.8406E+02
      7.182  0.3871E+00  0.3737E+00  0.8413E+02  0.8410E+02
      7.292  0.1279E+01  0.1452E+01  0.8427E+02  0.8426E+02
      7.401  0.7422E+00  0.7255E+00  0.8435E+02  0.8434E+02
      7.510  0.3440E+00  0.1537E+00  0.8439E+02  0.8436E+02
      7.619  0.1832E+01  0.1125E+01  0.8459E+02  0.8448E+02
      7.729  0.1875E+01  0.2644E+01  0.8480E+02  0.8477E+02
      7.838  0.2145E+00  0.3804E+00  0.8482E+02  0.8481E+02
      7.947  0.2151E+01  0.1499E+01  0.8505E+02  0.8498E+02
      8.056  0.1206E+01  0.1588E+01  0.8519E+02  0.8515E+02
      8.165  0.8347E+00  0.6016E+00  0.8528E+02  0.8522E+02
      8.275  0.1689E+01  0.1353E+01  0.8546E+02  0.8536E+02
      8.384  0.1041E+01  0.1360E+01  0.8558E+02  0.8551E+02
      8.493  0.2463E+01  0.1635E+01  0.8584E+02  0.8569E+02
      8.602  0.3072E+01  0.3504E+01  0.8618E+02  0.8607E+02
      8.712  0.4955E+01  0.3946E+01  0.8672E+02  0.8650E+02
      8.821  0.4246E+01  0.3932E+01  0.8719E+02  0.8693E+02
      8.930  0.2194E+01  0.3446E+01  0.8743E+02  0.8731E+02
      9.039  0.4925E+00  0.1170E+01  0.8748E+02  0.8744E+02
      9.148  0.2298E+01  0.1058E+01  0.8773E+02  0.8755E+02
      9.258  0.2870E+01  0.3525E+01  0.8804E+02  0.8794E+02
      9.367  0.3594E+01  0.4030E+01  0.8844E+02  0.8838E+02
      9.476  0.1398E+01  0.1423E+01  0.8859E+02  0.8853E+02
      9.585  0.1026E+01  0.1101E+01  0.8870E+02  0.8865E+02
      9.695  0.1881E+01  0.1477E+01  0.8891E+02  0.8882E+02
      9.804  0.3578E+01  0.3297E+01  0.8930E+02  0.8918E+02
      9.913  0.5241E+01  0.5258E+01  0.8987E+02  0.8975E+02
     10.022  0.3764E+01  0.3858E+01  0.9028E+02  0.9017E+02
     10.131  0.3334E+01  0.3360E+01  0.9064E+02  0.9054E+02
     10.241  0.4833E+01  0.4569E+01  0.9117E+02  0.9104E+02
     10.350  0.6157E+01  0.4649E+01  0.9184E+02  0.9154E+02
     10.459  0.6590E+01  0.6967E+01  0.9256E+02  0.9231E+02
     10.568  0.3865E+01  0.4842E+01  0.9299E+02  0.9283E+02
     10.678  0.7481E+01  0.4869E+01  0.9380E+02  0.9337E+02
     10.787  0.4139E+01  0.6179E+01  0.9426E+02  0.9404E+02
     10.896  0.5274E+01  0.4824E+01  0.9483E+02  0.9457E+02
     11.005  0.5216E+01  0.4992E+01  0.9540E+02  0.9511E+02
     11.114  0.5275E+01  0.4895E+01  0.9598E+02  0.9565E+02
     11.224  0.4270E+01  0.5689E+01  0.9644E+02  0.9627E+02
     11.333  0.4791E+01  0.2726E+01  0.9697E+02  0.9657E+02
     11.442  0.4113E+01  0.5941E+01  0.9742E+02  0.9722E+02
     11.551  0.4492E+01  0.3256E+01  0.9791E+02  0.9757E+02
     11.661  0.3935E+01  0.4912E+01  0.9834E+02  0.9811E+02
     11.770  0.3097E+01  0.3773E+01  0.9868E+02  0.9852E+02
     11.879  0.2085E+01  0.2483E+01  0.9890E+02  0.9879E+02
     11.988  0.3344E+01  0.1914E+01  0.9927E+02  0.9900E+02
     12.097  0.3493E+01  0.4014E+01  0.9965E+02  0.9944E+02
     12.207  0.2711E+01  0.3328E+01  0.9995E+02  0.9980E+02
     12.316  0.2745E+01  0.3024E+01  0.1002E+03  0.1001E+03
     12.425  0.2242E+01  0.2797E+01  0.1005E+03  0.1004E+03
     12.534  0.3798E+01  0.3239E+01  0.1009E+03  0.1008E+03
     12.644  0.5763E+01  0.4350E+01  0.1015E+03  0.1013E+03
     12.753  0.4437E+01  0.5573E+01  0.1020E+03  0.1019E+03
     12.862  0.4948E+01  0.4811E+01  0.1026E+03  0.1024E+03
     12.971  0.3171E+01  0.2839E+01  0.1029E+03  0.1027E+03
     13.080  0.3708E+01  0.4512E+01  0.1033E+03  0.1032E+03
     13.190  0.2921E+01  0.2210E+01  0.1036E+03  0.1034E+03
     13.299  0.7882E+00  0.2036E+01  0.1037E+03  0.1037E+03
     13.408  0.1374E+01  0.2023E+01  0.1039E+03  0.1039E+03
     13.517  0.9069E+00  0.4213E+00  0.1040E+03  0.1039E+03
     13.627  0.1250E+00  0.5968E+00  0.1040E+03  0.1040E+03
     13.736  0.5834E-02  0.1560E-04  0.1040E+03  0.1040E+03
     13.845  0.1848E+00  0.0000E+00  0.1040E+03  0.1040E+03
     13.954  0.1002E-03  0.0000E+00  0.1040E+03  0.1040E+03
     14.063  0.0000E+00  0.0000E+00  0.1040E+03  0.1040E+03
     14.173  0.0000E+00  0.0000E+00  0.1040E+03  0.1040E+03
     14.282  0.0000E+00  0.0000E+00  0.1040E+03  0.1040E+03
     14.391  0.0000E+00  0.0000E+00  0.1040E+03  0.1040E+03
     14.500  0.0000E+00  0.0000E+00  0.1040E+03  0.1040E+03
     14.610  0.0000E+00  0.0000E+00  0.1040E+03  0.1040E+03
     14.719  0.0000E+00  0.0000E+00  0.1040E+03  0.1040E+03
     14.828  0.0000E+00  0.0000E+00  0.1040E+03  0.1040E+03
     14.937  0.0000E+00  0.0000E+00  0.1040E+03  0.1040E+03
     15.046  0.0000E+00  0.0000E+00  0.1040E+03  0.1040E+03
     15.156  0.0000E+00  0.0000E+00  0.1040E+03  0.1040E+03
     15.265  0.0000E+00  0.0000E+00  0.1040E+03  0.1040E+03
