 vasp.5.4.1 05Feb16 (build Apr 23 2022 14:15:44) complex                        
  
 executed on           IFC91_ompi date 2024.11.30  11:11:39
 running on   64 total cores
 distrk:  each k-point on   64 cores,    1 groups
 distr:  one band on NCORES_PER_BAND=   8 cores,    8 groups


--------------------------------------------------------------------------------------------------------


 INCAR:
 POTCAR:    PAW_PBE Li 17Jan2003                  
 POTCAR:    PAW_PBE V 08Apr2002                   
 POTCAR:    PAW_PBE O 08Apr2002                   
 POTCAR:    PAW_PBE Li 17Jan2003                  
   VRHFIN =Li: s1p0                                                             
   LEXCH  = PE                                                                  
   EATOM  =     5.3001 eV,    0.3895 Ry                                         
                                                                                
   TITEL  = PAW_PBE Li 17Jan2003                                                
   LULTRA =        F    use ultrasoft PP ?                                      
   IUNSCR =        1    unscreen: 0-lin 1-nonlin 2-no                           
   RPACOR =    1.500    partial core radius                                     
   POMASS =    7.010; ZVAL   =    1.000    mass and valenz                      
   RCORE  =    2.050    outmost cutoff radius                                   
   RWIGS  =    2.600; RWIGS  =    1.376    wigner-seitz radius (au A)           
   ENMAX  =  140.000; ENMIN  =  100.000 eV                                      
   ICORE  =        2    local potential                                         
   LCOR   =        T    correct aug charges                                     
   LPAW   =        T    paw PP                                                  
   EAUG   =  331.638                                                            
   DEXC   =    0.000                                                            
   RMAX   =    2.098    core radius for proj-oper                               
   RAUG   =    1.300    factor for augmentation sphere                          
   RDEP   =    2.094    radius for radial grids                                 
   RDEPT  =    1.810    core radius for aug-charge                              
                                                                                
   Atomic configuration                                                         
    4 entries                                                                   
     n  l   j            E        occ.                                          
     1  0  0.50       -51.8549   2.0000                                         
     2  0  0.50        -2.8742   1.0000                                         
     2  1  0.50        -1.3606   0.0000                                         
     3  2  1.50        -1.3606   0.0000                                         
   Description                                                                  
     l       E           TYP  RCUT    TYP  RCUT                                 
     0     -2.8742052     23  2.050                                             
     0     27.2116520     23  2.050                                             
     1     -1.3605826     23  2.050                                             
     2     -1.3605826     23  2.050                                             
  local pseudopotential read in
  partial core-charges read in
  partial kinetic energy density read in
  atomic valenz-charges read in
  non local Contribution for L=           0  read in
    real space projection operators read in
  non local Contribution for L=           0  read in
    real space projection operators read in
  non local Contribution for L=           1  read in
    real space projection operators read in
    PAW grid and wavefunctions read in
 
   number of l-projection  operators is LMAX  =           3
   number of lm-projection operators is LMMAX =           5
 
 POTCAR:    PAW_PBE V 08Apr2002                   
   VRHFIN =V: p6 d4 s1                                                          
   LEXCH  = PE                                                                  
   EATOM  =   170.8679 eV,   12.5584 Ry                                         
                                                                                
   TITEL  = PAW_PBE V 08Apr2002                                                 
   LULTRA =        F    use ultrasoft PP ?                                      
   IUNSCR =        1    unscreen: 0-lin 1-nonlin 2-no                           
   RPACOR =    2.000    partial core radius                                     
   POMASS =   50.941; ZVAL   =    5.000    mass and valenz                      
   RCORE  =    2.700    outmost cutoff radius                                   
   RWIGS  =    2.500; RWIGS  =    1.323    wigner-seitz radius (au A)           
   ENMAX  =  192.543; ENMIN  =  144.408 eV                                      
   RCLOC  =    1.779    cutoff for local pot                                    
   LCOR   =        T    correct aug charges                                     
   LPAW   =        T    paw PP                                                  
   EAUG   =  358.662                                                            
   DEXC   =    0.000                                                            
   RMAX   =    2.768    core radius for proj-oper                               
   RAUG   =    1.300    factor for augmentation sphere                          
   RDEP   =    2.762    radius for radial grids                                 
   RDEPT  =    2.240    core radius for aug-charge                              
                                                                                
   Atomic configuration                                                         
    9 entries                                                                   
     n  l   j            E        occ.                                          
     1  0  0.50     -5360.7193   2.0000                                         
     2  0  0.50      -598.4546   2.0000                                         
     2  1  1.50      -499.0155   6.0000                                         
     3  0  0.50       -66.5711   2.0000                                         
     3  1  1.50       -40.5282   6.0000                                         
     3  2  2.50        -2.4291   4.0000                                         
     4  0  0.50        -3.8743   1.0000                                         
     4  1  0.50        -2.7212   0.0000                                         
     4  3  2.50        -1.3606   0.0000                                         
   Description                                                                  
     l       E           TYP  RCUT    TYP  RCUT                                 
     2     -2.4290901     23  2.700                                             
     2     -3.7896727     23  2.700                                             
     0     -3.8742752     23  2.700                                             
     0     27.2116520     23  2.700                                             
     1     -2.7211652     23  2.700                                             
     1     27.2116520     23  2.700                                             
  local pseudopotential read in
  partial core-charges read in
  partial kinetic energy density read in
  atomic valenz-charges read in
  non local Contribution for L=           2  read in
    real space projection operators read in
  non local Contribution for L=           2  read in
    real space projection operators read in
  non local Contribution for L=           0  read in
    real space projection operators read in
  non local Contribution for L=           0  read in
    real space projection operators read in
  non local Contribution for L=           1  read in
    real space projection operators read in
  non local Contribution for L=           1  read in
    real space projection operators read in
    PAW grid and wavefunctions read in
 
   number of l-projection  operators is LMAX  =           6
   number of lm-projection operators is LMMAX =          18
 
 POTCAR:    PAW_PBE O 08Apr2002                   
   VRHFIN =O: s2p4                                                              
   LEXCH  = PE                                                                  
   EATOM  =   432.3788 eV,   31.7789 Ry                                         
                                                                                
   TITEL  = PAW_PBE O 08Apr2002                                                 
   LULTRA =        F    use ultrasoft PP ?                                      
   IUNSCR =        1    unscreen: 0-lin 1-nonlin 2-no                           
   RPACOR =    1.200    partial core radius                                     
   POMASS =   16.000; ZVAL   =    6.000    mass and valenz                      
   RCORE  =    1.520    outmost cutoff radius                                   
   RWIGS  =    1.550; RWIGS  =    0.820    wigner-seitz radius (au A)           
   ENMAX  =  400.000; ENMIN  =  300.000 eV                                      
   ICORE  =        2    local potential                                         
   LCOR   =        T    correct aug charges                                     
   LPAW   =        T    paw PP                                                  
   EAUG   =  605.392                                                            
   DEXC   =    0.000                                                            
   RMAX   =    1.553    core radius for proj-oper                               
   RAUG   =    1.300    factor for augmentation sphere                          
   RDEP   =    1.550    radius for radial grids                                 
   RDEPT  =    1.329    core radius for aug-charge                              
                                                                                
   Atomic configuration                                                         
    4 entries                                                                   
     n  l   j            E        occ.                                          
     1  0  0.50      -514.6923   2.0000                                         
     2  0  0.50       -23.9615   2.0000                                         
     2  1  0.50        -9.0305   4.0000                                         
     3  2  1.50        -9.5241   0.0000                                         
   Description                                                                  
     l       E           TYP  RCUT    TYP  RCUT                                 
     0    -23.9615318     23  1.200                                             
     0     -9.5240782     23  1.200                                             
     1     -9.0304911     23  1.520                                             
     1      8.1634956     23  1.520                                             
     2     -9.5240782      7  1.500                                             
  local pseudopotential read in
  partial core-charges read in
  partial kinetic energy density read in
  kinetic energy density of atom read in
  atomic valenz-charges read in
  non local Contribution for L=           0  read in
    real space projection operators read in
  non local Contribution for L=           0  read in
    real space projection operators read in
  non local Contribution for L=           1  read in
    real space projection operators read in
  non local Contribution for L=           1  read in
    real space projection operators read in
    PAW grid and wavefunctions read in
 
   number of l-projection  operators is LMAX  =           4
   number of lm-projection operators is LMMAX =           8
 
 Optimization of the real space projectors (new method)

 maximal supplied QI-value         = 18.33
 optimisation between [QCUT,QGAM] = [ 12.46, 24.93] = [ 43.51,174.03] Ry 
 Optimized for a Real-space Cutoff    1.13 Angstroem

   l    n(q)    QCUT    max X(q) W(low)/X(q) W(high)/X(q)  e(spline) 
   0      8    12.465    33.825    0.12E-03    0.29E-03    0.99E-07
   0      8    12.465     8.944    0.86E-04    0.22E-03    0.72E-07
   1      8    12.465     4.214    0.27E-03    0.11E-03    0.82E-07
 Optimization of the real space projectors (new method)

 maximal supplied QI-value         = 13.98
 optimisation between [QCUT,QGAM] = [ 12.45, 25.03] = [ 43.38,175.46] Ry 
 Optimized for a Real-space Cutoff    1.56 Angstroem

   l    n(q)    QCUT    max X(q) W(low)/X(q) W(high)/X(q)  e(spline) 
   2     11    12.446    96.114    0.19E-03    0.47E-04    0.85E-06
   2     11    12.446    88.986    0.19E-03    0.46E-04    0.86E-06
   0     12    12.446    20.919    0.37E-04    0.64E-04    0.43E-06
   0     12    12.446     9.593    0.25E-04    0.48E-04    0.33E-06
   1     11    12.446    11.615    0.75E-04    0.30E-04    0.59E-06
   1     11    12.446     7.031    0.53E-04    0.23E-04    0.40E-06
 Optimization of the real space projectors (new method)

 maximal supplied QI-value         = 24.76
 optimisation between [QCUT,QGAM] = [ 12.38, 25.00] = [ 42.90,175.06] Ry 
 Optimized for a Real-space Cutoff    1.13 Angstroem

   l    n(q)    QCUT    max X(q) W(low)/X(q) W(high)/X(q)  e(spline) 
   0      8    12.378    20.381    0.16E-03    0.54E-05    0.27E-06
   0      8    12.378    15.268    0.17E-03    0.61E-05    0.29E-06
   1      8    12.378     5.964    0.38E-03    0.23E-03    0.28E-06
   1      8    12.378     5.382    0.33E-03    0.20E-03    0.25E-06
  PAW_PBE Li 17Jan2003                  :
 energy of atom  1       EATOM=   -5.3001
 kinetic energy error for atom=    0.0000 (will be added to EATOM!!)
  PAW_PBE V 08Apr2002                   :
 energy of atom  2       EATOM= -170.8679
 kinetic energy error for atom=    0.0002 (will be added to EATOM!!)
  PAW_PBE O 08Apr2002                   :
 energy of atom  3       EATOM= -432.3788
 kinetic energy error for atom=    0.0168 (will be added to EATOM!!)
 
 
 POSCAR: Li  V  O                                
  positions in cartesian coordinates
  No initial velocities read in
 exchange correlation table for  LEXCH =        8
   RHO(1)=    0.500       N(1)  =     2000
   RHO(2)=  100.500       N(2)  =     4000

 VTST: version 3.1, (03/28/14)

 CHAIN: initializing optimizer
 
 OPT: Using VASP Dynamics algorithm
 CHAIN: Read ICHAIN            0
 
 POSCAR: Li  V  O                                
  positions in cartesian coordinates
  No initial velocities read in
 


--------------------------------------------------------------------------------------------------------


 ion  position               nearest neighbor table
   1  0.021  0.679  0.118-  25 1.86  26 1.90  22 1.96  19 1.98   7 2.25  11 2.84   5 2.90   6 2.93
                             6 2.97   2 3.02  16 3.04  15 3.06  15 3.11  16 3.22   2 3.23
   2  0.492  0.331  0.129-  22 1.94  19 1.96  20 1.96  24 1.97   7 2.42   1 3.02  15 3.03  15 3.05
                             6 3.07   5 3.07  10 3.09  16 3.12   3 3.16  16 3.19   6 3.22   1 3.23
   3  0.492  0.331  0.381-  23 1.94  21 1.96  28 1.96  24 1.97   7 2.42   4 3.02  17 3.03  17 3.05
                            13 3.07   5 3.07   9 3.09  16 3.12   2 3.16  16 3.19  13 3.22   4 3.24
   4  0.021  0.680  0.391-  33 1.86  26 1.90  23 1.96  21 1.99   7 2.25   8 2.84   5 2.90  13 2.93
                            13 2.97   3 3.02  16 3.04  17 3.05  17 3.11  16 3.22   3 3.24
   5  0.019  0.109  0.255-  26 1.86  24 1.97  19 2.07  21 2.07   7 2.22  16 2.81   1 2.90   4 2.90
                            16 2.96   2 3.07   3 3.07  15 3.14  17 3.15   2 3.28   3 3.29
   6  0.526  0.815  0.005-  31 1.95  22 1.96  20 1.99  25 2.02   1 2.93  11 2.93  11 2.97   1 2.97
                            15 3.03   2 3.07  10 3.07  18 3.13  16 3.13  10 3.22   2 3.22
   7  0.828  0.476  0.255-  23 2.02  22 2.02  24 2.03   5 2.22   4 2.25   1 2.25  21 2.29  26 2.29
                            19 2.30   3 2.42   2 2.42  16 2.57
   8  0.021  0.679  0.618-  33 1.86  34 1.90  30 1.96  27 1.98  14 2.25   4 2.84  12 2.90  13 2.93
                            13 2.97   9 3.02  18 3.04  17 3.06  17 3.11  18 3.22   9 3.23
   9  0.492  0.331  0.629-  30 1.94  27 1.96  28 1.96  32 1.97  14 2.42   8 3.02  17 3.03  17 3.05
                            13 3.07  12 3.07   3 3.09  18 3.12  10 3.16  18 3.19  13 3.22   8 3.23
  10  0.492  0.331  0.881-  31 1.94  29 1.96  20 1.96  32 1.97  14 2.42  11 3.02  15 3.03  15 3.05
                             6 3.07  12 3.07   2 3.09  18 3.12   9 3.16  18 3.19   6 3.22  11 3.24
  11  0.021  0.680  0.891-  25 1.86  34 1.90  31 1.96  29 1.99  14 2.25   1 2.84  12 2.90   6 2.93
                             6 2.97  10 3.02  18 3.04  15 3.05  15 3.11  18 3.22  10 3.24
  12  0.019  0.109  0.755-  34 1.86  32 1.97  27 2.07  29 2.07  14 2.22  18 2.81   8 2.90  11 2.90
                            18 2.96   9 3.07  10 3.07  17 3.14  15 3.15   9 3.28  10 3.29
  13  0.526  0.815  0.505-  23 1.95  30 1.96  28 1.99  33 2.02   8 2.93   4 2.93   4 2.97   8 2.97
                            17 3.03   9 3.07   3 3.07  16 3.13  18 3.13   3 3.22   9 3.22
  14  0.828  0.476  0.755-  31 2.02  30 2.02  32 2.03  12 2.22  11 2.25   8 2.25  29 2.29  34 2.29
                            27 2.30  10 2.42   9 2.42  18 2.57
  15  0.993  0.174  0.005-  20 1.72  25 1.73  19 1.75  29 1.75   6 3.03  10 3.03   2 3.03  10 3.05
                             2 3.05  11 3.05   1 3.06  11 3.11   1 3.11   5 3.14  12 3.15
  16  0.499  0.838  0.255-  26 1.81  24 1.83  22 1.84  23 1.84   7 2.57   5 2.81   5 2.96   4 3.04
                             1 3.04   3 3.12   2 3.12  13 3.13   6 3.13   3 3.19   2 3.19   4 3.22
  17  0.993  0.174  0.505-  28 1.72  33 1.73  27 1.75  21 1.75  13 3.03   3 3.03   9 3.03   3 3.05
                             9 3.05   4 3.05   8 3.06   4 3.11   8 3.11  12 3.14   5 3.15
  18  0.499  0.838  0.755-  34 1.81  32 1.83  30 1.84  31 1.84  14 2.57  12 2.81  12 2.96  11 3.04
                             8 3.04  10 3.12   9 3.12   6 3.13  13 3.13  10 3.19   9 3.19  11 3.22
  19  0.097  0.324  0.122-  15 1.75   2 1.96   1 1.98   5 2.07   7 2.30
  20  0.646  0.163  0.005-  15 1.72   2 1.96  10 1.96   6 1.99
  21  0.097  0.323  0.388-  17 1.75   3 1.96   4 1.99   5 2.07   7 2.29
  22  0.629  0.663  0.141-  16 1.84   2 1.94   6 1.96   1 1.96   7 2.02
  23  0.629  0.663  0.370-  16 1.84   3 1.94  13 1.95   4 1.96   7 2.02
  24  0.624  0.153  0.255-  16 1.83   5 1.97   3 1.97   2 1.97   7 2.03
  25  0.125  0.880  0.005-  15 1.73  11 1.86   1 1.86   6 2.02
  26  0.138  0.787  0.255-  16 1.81   5 1.86   4 1.90   1 1.90   7 2.29
  27  0.097  0.324  0.622-  17 1.75   9 1.96   8 1.98  12 2.07  14 2.30
  28  0.646  0.163  0.505-  17 1.72   9 1.96   3 1.96  13 1.99
  29  0.097  0.323  0.888-  15 1.75  10 1.96  11 1.99  12 2.07  14 2.29
  30  0.629  0.663  0.641-  18 1.84   9 1.94  13 1.96   8 1.96  14 2.02
  31  0.629  0.663  0.870-  18 1.84  10 1.94   6 1.95  11 1.96  14 2.02
  32  0.624  0.153  0.755-  18 1.83  12 1.97  10 1.97   9 1.97  14 2.03
  33  0.125  0.880  0.505-  17 1.73   4 1.86   8 1.86  13 2.02
  34  0.138  0.787  0.755-  18 1.81  12 1.86  11 1.90   8 1.90  14 2.29
 
  LATTYP: Found a triclinic cell.
 ALAT       =     5.4668454271
 B/A-ratio  =     0.9052155968
 C/A-ratio  =     2.2859964392
 COS(alpha) =     0.0001087557
 COS(beta)  =     0.0004945275
 COS(gamma) =     0.0043762836
  
  Lattice vectors:
  
 A1 = (  -0.0108203871,   5.4668346876,  -0.0005844155)
 A2 = (  -4.9486594699,   0.0118621500,   0.0007631854)
 A3 = (   0.0005861988,   0.0075173501,  12.4971869053)


Analysis of symmetry for initial positions (statically):
=====================================================================
 Subroutine PRICEL returns following result:
 
  LATTYP: Found a triclinic cell.
 ALAT       =     5.4668454271
 B/A-ratio  =     0.9052155968
 C/A-ratio  =     1.1429982196
 COS(alpha) =     0.0001087557
 COS(beta)  =     0.0004945275
 COS(gamma) =     0.0043762836
  
  Lattice vectors:
  
 A1 = (  -0.0108203871,   5.4668346876,  -0.0005844155)
 A2 = (  -4.9486594699,   0.0118621500,   0.0007631854)
 A3 = (   0.0002930994,   0.0037586751,   6.2485934527)
 
   2 primitive cells build up your supercell.
 

 Routine SETGRP: Setting up the symmetry group for a 
 triclinic supercell.


 Subroutine GETGRP returns: Found  1 space group operations
 (whereof  1 operations were pure point group operations)
 out of a pool of  2 trial point group operations.


The static configuration has the point symmetry C_1 .


Analysis of symmetry for dynamics (positions and initial velocities):
=====================================================================
 Subroutine PRICEL returns following result:
 
  LATTYP: Found a triclinic cell.
 ALAT       =     5.4668454271
 B/A-ratio  =     0.9052155968
 C/A-ratio  =     1.1429982196
 COS(alpha) =     0.0001087557
 COS(beta)  =     0.0004945275
 COS(gamma) =     0.0043762836
  
  Lattice vectors:
  
 A1 = (  -0.0108203871,   5.4668346876,  -0.0005844155)
 A2 = (  -4.9486594699,   0.0118621500,   0.0007631854)
 A3 = (   0.0002930994,   0.0037586751,   6.2485934527)
 
   2 primitive cells build up your supercell.
 

 Routine SETGRP: Setting up the symmetry group for a 
 triclinic supercell.


 Subroutine GETGRP returns: Found  1 space group operations
 (whereof  1 operations were pure point group operations)
 out of a pool of  2 trial point group operations.


The dynamic configuration has the point symmetry C_1 .


Analysis of structural, dynamic, and magnetic symmetry:
=====================================================================
 Subroutine PRICEL returns following result:
 
  LATTYP: Found a triclinic cell.
 ALAT       =     5.4668454271
 B/A-ratio  =     0.9052155968
 C/A-ratio  =     1.1429982196
 COS(alpha) =     0.0001087557
 COS(beta)  =     0.0004945275
 COS(gamma) =     0.0043762836
  
  Lattice vectors:
  
 A1 = (  -0.0108203871,   5.4668346876,  -0.0005844155)
 A2 = (  -4.9486594699,   0.0118621500,   0.0007631854)
 A3 = (   0.0002930994,   0.0037586751,   6.2485934527)
 
   2 primitive cells build up your supercell.
 

 Routine SETGRP: Setting up the symmetry group for a 
 triclinic supercell.


 Subroutine GETGRP returns: Found  1 space group operations
 (whereof  1 operations were pure point group operations)
 out of a pool of  2 trial point group operations.


The magnetic configuration has the point symmetry C_1 .


 Subroutine INISYM returns: Found  1 space group operations
 (whereof  1 operations are pure point group operations),
 and found     2 'primitive' translations

 
 
 KPOINTS: KPOINTS created by Atomic Simulation Env

Automatic generation of k-mesh.
Space group operators:
 irot       det(A)        alpha          n_x          n_y          n_z        tau_x        tau_y        tau_z
    1     1.000000     0.000000     1.000000     0.000000     0.000000     0.000000     0.000000     0.000000
 
 Subroutine IBZKPT returns following result:
 ===========================================
 
 Found     26 irreducible k-points:
 
 Following reciprocal coordinates:
            Coordinates               Weight
  0.000000  0.000000  0.000000      1.000000
  0.250000 -0.000000 -0.000000      2.000000
  0.500000 -0.000000 -0.000000      1.000000
 -0.000000  0.250000  0.000000      2.000000
  0.250000  0.250000  0.000000      2.000000
  0.500000  0.250000 -0.000000      2.000000
 -0.250000  0.250000 -0.000000      2.000000
 -0.000000  0.500000  0.000000      1.000000
  0.250000  0.500000 -0.000000      2.000000
  0.500000  0.500000  0.000000      1.000000
 -0.000000 -0.000000  0.333333      2.000000
  0.250000  0.000000  0.333333      2.000000
  0.500000  0.000000  0.333333      2.000000
 -0.250000  0.000000  0.333333      2.000000
  0.000000  0.250000  0.333333      2.000000
  0.250000  0.250000  0.333333      2.000000
  0.500000  0.250000  0.333333      2.000000
 -0.250000  0.250000  0.333333      2.000000
  0.000000  0.500000  0.333333      2.000000
  0.250000  0.500000  0.333333      2.000000
  0.500000  0.500000  0.333333      2.000000
 -0.250000  0.500000  0.333333      2.000000
  0.000000 -0.250000  0.333333      2.000000
  0.250000 -0.250000  0.333333      2.000000
  0.500000 -0.250000  0.333333      2.000000
 -0.250000 -0.250000  0.333333      2.000000
 
 Following cartesian coordinates:
            Coordinates               Weight
  0.000000  0.000000  0.000000      1.000000
  0.050519  0.000100 -0.000002      2.000000
  0.101038  0.000200 -0.000005      1.000000
  0.000110  0.045731 -0.000028      2.000000
  0.050629  0.045831 -0.000030      2.000000
  0.101148  0.045930 -0.000032      2.000000
 -0.050409  0.045631 -0.000025      2.000000
  0.000219  0.091461 -0.000055      1.000000
  0.050738  0.091561 -0.000057      2.000000
  0.101257  0.091661 -0.000060      1.000000
  0.000004  0.000003  0.026673      2.000000
  0.050523  0.000103  0.026670      2.000000
  0.101042  0.000203  0.026668      2.000000
 -0.050515 -0.000097  0.026675      2.000000
  0.000114  0.045733  0.026645      2.000000
  0.050633  0.045833  0.026643      2.000000
  0.101152  0.045933  0.026640      2.000000
 -0.050405  0.045633  0.026648      2.000000
  0.000223  0.091464  0.026618      2.000000
  0.050742  0.091564  0.026615      2.000000
  0.101261  0.091664  0.026613      2.000000
 -0.050296  0.091364  0.026620      2.000000
 -0.000105 -0.045728  0.026700      2.000000
  0.050413 -0.045628  0.026698      2.000000
  0.100932 -0.045528  0.026695      2.000000
 -0.050624 -0.045828  0.026703      2.000000
 


--------------------------------------------------------------------------------------------------------




 Dimension of arrays:
   k-points           NKPTS =     26   k-points in BZ     NKDIM =     26   number of bands    NBANDS=    104
   number of dos      NEDOS =    301   number of ions     NIONS =     34
   non local maximal  LDIM  =      6   non local SUM 2l+1 LMDIM =     18
   total plane-waves  NPLWV =  86400
   max r-space proj   IRMAX =   4116   max aug-charges    IRDMAX=  15695
   dimension x,y,z NGX =    30 NGY =   36 NGZ =   80
   dimension x,y,z NGXF=    60 NGYF=   72 NGZF=  160
   support grid    NGXF=    60 NGYF=   72 NGZF=  160
   ions per type =              14   4  16
 NGX,Y,Z   is equivalent  to a cutoff of  10.08, 10.95, 10.64 a.u.
 NGXF,Y,Z  is equivalent  to a cutoff of  20.16, 21.90, 21.28 a.u.


 I would recommend the setting:
   dimension x,y,z NGX =    30 NGY =   33 NGZ =   75
 SYSTEM =  unknown system                          
 POSCAR =  Li  V  O                                

 Startparameter for this run:
   NWRITE =      2    write-flag & timer
   PREC   = normal    normal or accurate (medium, high low for compatibility)
   ISTART =      0    job   : 0-new  1-cont  2-samecut
   ICHARG =      2    charge: 1-file 2-atom 10-const
   ISPIN  =      2    spin polarized calculation?
   LNONCOLLINEAR =      F non collinear calculations
   LSORBIT =      F    spin-orbit coupling
   INIWAV =      1    electr: 0-lowe 1-rand  2-diag
   LASPH  =      F    aspherical Exc in radial PAW
   METAGGA=      F    non-selfconsistent MetaGGA calc.

 Electronic Relaxation 1
   ENCUT  =  600.0 eV  44.10 Ry    6.64 a.u.   9.88 10.92 24.96*2*pi/ulx,y,z
   ENINI  =  600.0     initial cutoff
   ENAUG  =  605.4 eV  augmentation charge cutoff
   NELM   =    500;   NELMIN=  2; NELMDL=-12     # of ELM steps 
   EDIFF  = 0.1E-05   stopping-criterion for ELM
   LREAL  =      T    real-space projection
   NLSPLINE    = F    spline interpolate recip. space projectors
   LCOMPAT=      F    compatible to vasp.4.4
   GGA_COMPAT  = T    GGA compatible to vasp.4.4-vasp.4.6
   LMAXPAW     = -100 max onsite density
   LMAXMIX     =    4 max onsite mixed and CHGCAR
   VOSKOWN=      0    Vosko Wilk Nusair interpolation
   ROPT   =   -0.00050  -0.00050  -0.00050
 Ionic relaxation
   EDIFFG = -.1E-01   stopping-criterion for IOM
   NSW    =      0    number of steps for IOM
   NBLOCK =      1;   KBLOCK =      1    inner block; outer block 
   IBRION =     -1    ionic relax: 0-MD 1-quasi-New 2-CG
   NFREE  =      0    steps in history (QN), initial steepest desc. (CG)
   ISIF   =      2    stress and relaxation
   IWAVPR =     10    prediction:  0-non 1-charg 2-wave 3-comb
   ISYM   =      2    0-nonsym 1-usesym 2-fastsym
   LCORR  =      T    Harris-Foulkes like correction to forces

   POTIM  = 0.5000    time-step for ionic-motion
   TEIN   =    0.0    initial temperature
   TEBEG  =    0.0;   TEEND  =   0.0 temperature during run
   SMASS  =  -3.00    Nose mass-parameter (am)
   estimated Nose-frequenzy (Omega)   =  0.10E-29 period in steps =****** mass=  -0.560E-27a.u.
   SCALEE = 1.0000    scale energy and forces
   NPACO  =    256;   APACO  = 16.0  distance and # of slots for P.C.
   PSTRESS=    0.0 pullay stress

  Mass of Ions in am
   POMASS =   7.01 50.94 16.00
  Ionic Valenz
   ZVAL   =   1.00  5.00  6.00
  Atomic Wigner-Seitz radii
   RWIGS  =  -1.00 -1.00 -1.00
  virtual crystal weights 
   VCA    =   1.00  1.00  1.00
   NELECT =     130.0000    total number of electrons
   NUPDOWN=      -1.0000    fix difference up-down

 DOS related values:
   EMIN   =  10.00;   EMAX   =-10.00  energy-range for DOS
   EFERMI =   0.00
   ISMEAR =     0;   SIGMA  =   0.03  broadening in eV -4-tet -1-fermi 0-gaus

 Electronic relaxation 2 (details)
   IALGO  =     48    algorithm
   LDIAG  =      T    sub-space diagonalisation (order eigenvalues)
   LSUBROT=      F    optimize rotation matrix (better conditioning)
   TURBO    =      0    0=normal 1=particle mesh
   IRESTART =      0    0=no restart 2=restart with 2 vectors
   NREBOOT  =      0    no. of reboots
   NMIN     =      0    reboot dimension
   EREF     =   0.00    reference energy to select bands
   IMIX   =      4    mixing-type and parameters
     AMIX     =   0.40;   BMIX     =  1.00
     AMIX_MAG =   1.60;   BMIX_MAG =  1.00
     AMIN     =   0.10
     WC   =   100.;   INIMIX=   1;  MIXPRE=   1;  MAXMIX= -45

 Intra band minimization:
   WEIMIN = 0.0000     energy-eigenvalue tresh-hold
   EBREAK =  0.24E-08  absolut break condition
   DEPER  =   0.30     relativ break condition  

   TIME   =   0.40     timestep for ELM

  volume/ion in A,a.u.               =       9.94        67.10
  Fermi-wavevector in a.u.,A,eV,Ry     =   1.190451  2.249625 19.281803  1.417173
  Thomas-Fermi vector in A             =   2.326535
 
 Write flags
   LWAVE  =      F    write WAVECAR
   LCHARG =      F    write CHGCAR
   LVTOT  =      F    write LOCPOT, total local potential
   LVHAR  =      F    write LOCPOT, Hartree potential only
   LELF   =      F    write electronic localiz. function (ELF)
   LORBIT =      0    0 simple, 1 ext, 2 COOP (PROOUT)


 Dipole corrections
   LMONO  =      F    monopole corrections only (constant potential shift)
   LDIPOL =      F    correct potential (dipole corrections)
   IDIPOL =      0    1-x, 2-y, 3-z, 4-all directions 
   EPSILON=  1.0000000 bulk dielectric constant

 LDA+U is selected, type is set to LDAUTYPE =  2
   angular momentum for each species LDAUL =    -1    2   -1
   U (eV)           for each species LDAUU =   0.0  3.0  0.0
   J (eV)           for each species LDAUJ =   0.0  0.0  0.0
 Exchange correlation treatment:
   GGA     =    PE    GGA type
   LEXCH   =     8    internal setting for exchange type
   VOSKOWN=      0    Vosko Wilk Nusair interpolation
   LHFCALC =     F    Hartree Fock is set to
   LHFONE  =     F    Hartree Fock one center treatment
   AEXX    =    0.0000 exact exchange contribution

 Linear response parameters
   LEPSILON=     F    determine dielectric tensor
   LRPA    =     F    only Hartree local field effects (RPA)
   LNABLA  =     F    use nabla operator in PAW spheres
   LVEL    =     F    velocity operator in full k-point grid
   LINTERFAST=   F  fast interpolation
   KINTER  =     0    interpolate to denser k-point grid
   CSHIFT  =0.1000    complex shift for real part using Kramers Kronig
   OMEGAMAX=  -1.0    maximum frequency
   DEG_THRESHOLD= 0.2000000E-02 threshold for treating states as degnerate
   RTIME   =    0.100 relaxation time in fs

 Orbital magnetization related:
   ORBITALMAG=     F  switch on orbital magnetization
   LCHIMAG   =     F  perturbation theory with respect to B field
   DQ        =  0.001000  dq finite difference perturbation B field



--------------------------------------------------------------------------------------------------------


 Static calculation
 charge density and potential will be updated during run
 spin polarized calculation
 RMM-DIIS sequential band-by-band
 perform sub-space diagonalisation
    before iterative eigenvector-optimisation
 modified Broyden-mixing scheme, WC =      100.0
 initial mixing is a Kerker type mixing with AMIX =  0.4000 and BMIX =      1.0000
 Hartree-type preconditioning will be used
 using additional bands           39
 real space projection scheme for non local part
 use partial core corrections
 calculate Harris-corrections to forces 
   (improved forces if not selfconsistent)
 use gradient corrections 
 use of overlap-Matrix (Vanderbilt PP)
 Gauss-broadening in eV      SIGMA  =   0.03


--------------------------------------------------------------------------------------------------------


  energy-cutoff  :      600.00
  volume of cell :      338.09
      direct lattice vectors                 reciprocal lattice vectors
     4.948659470 -0.011862150 -0.000763185     0.202075884  0.000399963 -0.000009719
    -0.010820387  5.466834688 -0.000584416     0.000438455  0.182922063 -0.000110052
     0.000586199  0.007517350 12.497186905     0.000012361  0.000008579  0.080018002

  length of vectors
     4.948673746  5.466845427 12.497189180     0.202076280  0.182922622  0.080018004


 
 k-points in units of 2pi/SCALE and weight: KPOINTS created by Atomic Simulation Env
   0.00000000  0.00000000  0.00000000       0.021
   0.05051897  0.00009999 -0.00000243       0.042
   0.10103794  0.00019998 -0.00000486       0.021
   0.00010961  0.04573052 -0.00002751       0.042
   0.05062858  0.04583051 -0.00002994       0.042
   0.10114756  0.04593050 -0.00003237       0.042
  -0.05040936  0.04563052 -0.00002508       0.042
   0.00021923  0.09146103 -0.00005503       0.021
   0.05073820  0.09156102 -0.00005746       0.042
   0.10125717  0.09166101 -0.00005989       0.021
   0.00000412  0.00000286  0.02667267       0.042
   0.05052309  0.00010285  0.02667024       0.042
   0.10104206  0.00020284  0.02666781       0.042
  -0.05051485 -0.00009713  0.02667510       0.042
   0.00011373  0.04573338  0.02664515       0.042
   0.05063271  0.04583337  0.02664272       0.042
   0.10115168  0.04593336  0.02664029       0.042
  -0.05040524  0.04563338  0.02664758       0.042
   0.00022335  0.09146389  0.02661764       0.042
   0.05074232  0.09156388  0.02661521       0.042
   0.10126129  0.09166387  0.02661278       0.042
  -0.05029562  0.09136390  0.02662007       0.042
  -0.00010549 -0.04572766  0.02670018       0.042
   0.05041348 -0.04562767  0.02669775       0.042
   0.10093245 -0.04552767  0.02669532       0.042
  -0.05062446 -0.04582765  0.02670261       0.042
 
 k-points in reciprocal lattice and weights: KPOINTS created by Atomic Simulation Env
   0.00000000  0.00000000  0.00000000       0.021
   0.25000000 -0.00000000 -0.00000000       0.042
   0.50000000 -0.00000000 -0.00000000       0.021
  -0.00000000  0.25000000  0.00000000       0.042
   0.25000000  0.25000000  0.00000000       0.042
   0.50000000  0.25000000 -0.00000000       0.042
  -0.25000000  0.25000000 -0.00000000       0.042
  -0.00000000  0.50000000  0.00000000       0.021
   0.25000000  0.50000000 -0.00000000       0.042
   0.50000000  0.50000000  0.00000000       0.021
  -0.00000000 -0.00000000  0.33333333       0.042
   0.25000000  0.00000000  0.33333333       0.042
   0.50000000  0.00000000  0.33333333       0.042
  -0.25000000  0.00000000  0.33333333       0.042
   0.00000000  0.25000000  0.33333333       0.042
   0.25000000  0.25000000  0.33333333       0.042
   0.50000000  0.25000000  0.33333333       0.042
  -0.25000000  0.25000000  0.33333333       0.042
   0.00000000  0.50000000  0.33333333       0.042
   0.25000000  0.50000000  0.33333333       0.042
   0.50000000  0.50000000  0.33333333       0.042
  -0.25000000  0.50000000  0.33333333       0.042
   0.00000000 -0.25000000  0.33333333       0.042
   0.25000000 -0.25000000  0.33333333       0.042
   0.50000000 -0.25000000  0.33333333       0.042
  -0.25000000 -0.25000000  0.33333333       0.042
 
 position of ions in fractional coordinates (direct lattice) 
   0.02091634  0.67932060  0.11839502
   0.49179417  0.33127004  0.12855037
   0.49150599  0.33110217  0.38118117
   0.02101647  0.67957419  0.39147633
   0.01867855  0.10896127  0.25462317
   0.52606285  0.81517625  0.00496584
   0.82756583  0.47595765  0.25515313
   0.02091634  0.67932060  0.61839502
   0.49179417  0.33127004  0.62855037
   0.49150599  0.33110217  0.88118117
   0.02101647  0.67957419  0.89147633
   0.01867855  0.10896127  0.75462317
   0.52606285  0.81517625  0.50496584
   0.82756583  0.47595765  0.75515313
   0.99339842  0.17378049  0.00481167
   0.49944398  0.83822759  0.25496676
   0.99339842  0.17378049  0.50481167
   0.49944398  0.83822759  0.75496676
   0.09703662  0.32363128  0.12154349
   0.64609558  0.16252529  0.00490282
   0.09685338  0.32332952  0.38792366
   0.62870556  0.66315093  0.14055464
   0.62872420  0.66316452  0.36950471
   0.62439825  0.15293501  0.25493383
   0.12463734  0.88010044  0.00494308
   0.13821470  0.78734563  0.25490364
   0.09703662  0.32363128  0.62154349
   0.64609558  0.16252529  0.50490282
   0.09685338  0.32332952  0.88792366
   0.62870556  0.66315093  0.64055464
   0.62872420  0.66316452  0.86950471
   0.62439825  0.15293501  0.75493383
   0.12463734  0.88010044  0.50494308
   0.13821470  0.78734563  0.75490364
 
 position of ions in cartesian coordinates  (Angst):
   0.09622672  3.71437531  1.47919170
   2.43021278  1.80613118  1.60594901
   2.42893655  1.80711600  4.76312367
   0.09687958  3.71781331  4.89193969
   0.09140404  0.59736575  3.18199538
   2.59448831  4.45023092  0.06118117
   4.09034103  2.59408314  3.18778662
   0.09651982  3.71813398  7.72778515
   2.43050588  1.80988985  7.85454246
   2.42922965  1.81087467 11.01171712
   0.09717268  3.72157199 11.14053314
   0.09169714  0.60112443  9.43058883
   2.59478141  4.45398959  6.30977462
   4.09063413  2.59784181  9.43638008
   4.91411297  0.93828157  0.05927269
   2.46265770  4.57844385  3.18549625
   4.91440607  0.94204024  6.30786614
   2.46295080  4.58220252  9.43408970
   0.47677062  1.76900135  1.51868856
   3.19555128  0.88087165  0.06068341
   0.47602326  1.76935630  4.84769155
   3.10415654  3.61893532  1.75567028
   3.10438286  3.62073050  4.61690207
   3.08842896  0.83058013  3.18538976
   0.60726761  4.80992229  0.06116511
   0.67560750  4.30456510  3.18501285
   0.47706372  1.77276002  7.76728202
   3.19584438  0.88463032  6.30927687
   0.47631636  1.77311497 11.09628501
   3.10444964  3.62269400  8.00426374
   3.10467596  3.62448918 10.86549552
   3.08872206  0.83433881  9.43398321
   0.60756071  4.81368096  6.30975856
   0.67590060  4.30832377  9.43360630
 


--------------------------------------------------------------------------------------------------------


 k-point  1 :   0.0000 0.0000 0.0000  plane waves:   11251
 k-point  2 :   0.2500-0.0000-0.0000  plane waves:   11251
 k-point  3 :   0.5000-0.0000-0.0000  plane waves:   11278
 k-point  4 :  -0.0000 0.2500 0.0000  plane waves:   11251
 k-point  5 :   0.2500 0.2500 0.0000  plane waves:   11276
 k-point  6 :   0.5000 0.2500-0.0000  plane waves:   11280
 k-point  7 :  -0.2500 0.2500-0.0000  plane waves:   11291
 k-point  8 :  -0.0000 0.5000 0.0000  plane waves:   11282
 k-point  9 :   0.2500 0.5000-0.0000  plane waves:   11308
 k-point 10 :   0.5000 0.5000 0.0000  plane waves:   11292
 k-point 11 :  -0.0000-0.0000 0.3333  plane waves:   11265
 k-point 12 :   0.2500 0.0000 0.3333  plane waves:   11263
 k-point 13 :   0.5000 0.0000 0.3333  plane waves:   11295
 k-point 14 :  -0.2500 0.0000 0.3333  plane waves:   11266
 k-point 15 :   0.0000 0.2500 0.3333  plane waves:   11279
 k-point 16 :   0.2500 0.2500 0.3333  plane waves:   11287
 k-point 17 :   0.5000 0.2500 0.3333  plane waves:   11292
 k-point 18 :  -0.2500 0.2500 0.3333  plane waves:   11294
 k-point 19 :   0.0000 0.5000 0.3333  plane waves:   11263
 k-point 20 :   0.2500 0.5000 0.3333  plane waves:   11276
 k-point 21 :   0.5000 0.5000 0.3333  plane waves:   11336
 k-point 22 :  -0.2500 0.5000 0.3333  plane waves:   11284
 k-point 23 :   0.0000-0.2500 0.3333  plane waves:   11280
 k-point 24 :   0.2500-0.2500 0.3333  plane waves:   11295
 k-point 25 :   0.5000-0.2500 0.3333  plane waves:   11297
 k-point 26 :  -0.2500-0.2500 0.3333  plane waves:   11288

 maximum and minimum number of plane-waves per node :      1444     1376

 maximum number of plane-waves:     11336
 maximum index in each direction: 
   IXMAX=   10   IYMAX=   11   IZMAX=   24
   IXMIN=  -10   IYMIN=  -11   IZMIN=  -25

 WARNING: aliasing errors must be expected set NGX to  42 to avoid them
 WARNING: aliasing errors must be expected set NGY to  46 to avoid them
 WARNING: aliasing errors must be expected set NGZ to 100 to avoid them
 aliasing errors are usually negligible using standard VASP settings
 and one can safely disregard these warnings

 real space projection operators:
  total allocation   :       4525.28 KBytes
  max/ min on nodes  :        635.17        436.30


 parallel 3D FFT for wavefunctions:
    minimum data exchange during FFTs selected (reduces bandwidth)
 parallel 3D FFT for charge:
    minimum data exchange during FFTs selected (reduces bandwidth)


 total amount of memory used by VASP on root node    51895. kBytes
========================================================================

   base      :      30000. kBytes
   nonlr-proj:       3106. kBytes
   fftplans  :        763. kBytes
   grid      :       1950. kBytes
   one-center:        155. kBytes
   wavefun   :      15921. kBytes
 
     INWAV:  cpu time    0.0000: real time    0.0000
 Broyden mixing: mesh for mixing (old mesh)
   NGX = 19   NGY = 21   NGZ = 49
  (NGX  = 60   NGY  = 72   NGZ  =160)
  gives a total of  19551 points

 initial charge density was supplied:
 charge density of overlapping atoms calculated
 number of electron     130.0000000 magnetization      34.0000000
 keeping initial charge density in first step


--------------------------------------------------------------------------------------------------------


 Maximum index for non-local projection operator          587
 Maximum index for augmentation-charges          774 (set IRDMAX)


--------------------------------------------------------------------------------------------------------


 First call to EWALD:  gamma=   0.254
 Maximum number of real-space cells 4x 3x 2
 Maximum number of reciprocal cells 2x 2x 5

 FEWALD executed in parallel
    FEWALD:  cpu time    0.0016: real time    0.0016


----------------------------------------- Iteration    1(   1)  ---------------------------------------


    POTLOK:  cpu time    0.0168: real time    0.0173
    SETDIJ:  cpu time    0.0071: real time    0.0072
    EDDIAG:  cpu time    0.7524: real time    0.7657
  RMM-DIIS:  cpu time    0.4195: real time    0.4220
    ORTHCH:  cpu time    0.1827: real time    0.1837
       DOS:  cpu time    0.0025: real time    0.0028
    --------------------------------------------
      LOOP:  cpu time    1.3853: real time    1.4043

 eigenvalue-minimisations  :  5408
 total energy-change (2. order) : 0.1731760E+04  (-0.4646761E+04)
 number of electron     130.0000000 magnetization      34.0000000
 augmentation part      130.0000000 magnetization      34.0000000

 Free energy of the ion-electron system (eV)
  ---------------------------------------------------
  alpha Z        PSCENC =       251.93084815
  Ewald energy   TEWEN  =     -5393.34801868
  -Hartree energ DENC   =     -2361.26145689
  -exchange      EXHF   =         0.00000000
  -V(xc)+E(xc)   XCENC  =       205.84698432
  PAW double counting   =      6472.52975016    -6218.87994518
  entropy T*S    EENTRO =        -0.00475454
  eigenvalues    EBANDS =      1099.48256347
  atomic energy  EATOM  =      7675.46385950
  Solvation  Ediel_sol  =         0.00000000
  ---------------------------------------------------
  free energy    TOTEN  =      1731.75983030 eV

  energy without entropy =     1731.76458484  energy(sigma->0) =     1731.76220757


--------------------------------------------------------------------------------------------------------




----------------------------------------- Iteration    1(   2)  ---------------------------------------


    EDDIAG:  cpu time    0.7264: real time    0.7310
  RMM-DIIS:  cpu time    0.4168: real time    0.4193
    ORTHCH:  cpu time    0.1830: real time    0.1840
       DOS:  cpu time    0.0020: real time    0.0020
    --------------------------------------------
      LOOP:  cpu time    1.3294: real time    1.3517

 eigenvalue-minimisations  :  5408
 total energy-change (2. order) :-0.1228466E+04  (-0.1158211E+04)
 number of electron     130.0000000 magnetization      34.0000000
 augmentation part      130.0000000 magnetization      34.0000000

 Free energy of the ion-electron system (eV)
  ---------------------------------------------------
  alpha Z        PSCENC =       251.93084815
  Ewald energy   TEWEN  =     -5393.34801868
  -Hartree energ DENC   =     -2361.26145689
  -exchange      EXHF   =         0.00000000
  -V(xc)+E(xc)   XCENC  =       205.84698432
  PAW double counting   =      6472.52975016    -6218.87994518
  entropy T*S    EENTRO =        -0.00311909
  eigenvalues    EBANDS =      -128.98461761
  atomic energy  EATOM  =      7675.46385950
  Solvation  Ediel_sol  =         0.00000000
  ---------------------------------------------------
  free energy    TOTEN  =       503.29428467 eV

  energy without entropy =      503.29740376  energy(sigma->0) =      503.29584422


--------------------------------------------------------------------------------------------------------




----------------------------------------- Iteration    1(   3)  ---------------------------------------


    EDDIAG:  cpu time    0.7293: real time    0.7342
  RMM-DIIS:  cpu time    0.4153: real time    0.4176
    ORTHCH:  cpu time    0.1832: real time    0.1842
       DOS:  cpu time    0.0021: real time    0.0021
    --------------------------------------------
      LOOP:  cpu time    1.3310: real time    1.3526

 eigenvalue-minimisations  :  5408
 total energy-change (2. order) :-0.3759211E+03  (-0.3352130E+03)
 number of electron     130.0000000 magnetization      34.0000000
 augmentation part      130.0000000 magnetization      34.0000000

 Free energy of the ion-electron system (eV)
  ---------------------------------------------------
  alpha Z        PSCENC =       251.93084815
  Ewald energy   TEWEN  =     -5393.34801868
  -Hartree energ DENC   =     -2361.26145689
  -exchange      EXHF   =         0.00000000
  -V(xc)+E(xc)   XCENC  =       205.84698432
  PAW double counting   =      6472.52975016    -6218.87994518
  entropy T*S    EENTRO =        -0.00567146
  eigenvalues    EBANDS =      -504.90316957
  atomic energy  EATOM  =      7675.46385950
  Solvation  Ediel_sol  =         0.00000000
  ---------------------------------------------------
  free energy    TOTEN  =       127.37318034 eV

  energy without entropy =      127.37885181  energy(sigma->0) =      127.37601607


--------------------------------------------------------------------------------------------------------




----------------------------------------- Iteration    1(   4)  ---------------------------------------


    EDDIAG:  cpu time    0.7207: real time    0.7250
  RMM-DIIS:  cpu time    0.4117: real time    0.4141
    ORTHCH:  cpu time    0.1825: real time    0.1834
       DOS:  cpu time    0.0022: real time    0.0022
    --------------------------------------------
      LOOP:  cpu time    1.3184: real time    1.3400

 eigenvalue-minimisations  :  5408
 total energy-change (2. order) :-0.1853712E+03  (-0.1124660E+03)
 number of electron     130.0000000 magnetization      34.0000000
 augmentation part      130.0000000 magnetization      34.0000000

 Free energy of the ion-electron system (eV)
  ---------------------------------------------------
  alpha Z        PSCENC =       251.93084815
  Ewald energy   TEWEN  =     -5393.34801868
  -Hartree energ DENC   =     -2361.26145689
  -exchange      EXHF   =         0.00000000
  -V(xc)+E(xc)   XCENC  =       205.84698432
  PAW double counting   =      6472.52975016    -6218.87994518
  entropy T*S    EENTRO =        -0.00324057
  eigenvalues    EBANDS =      -690.27682395
  atomic energy  EATOM  =      7675.46385950
  Solvation  Ediel_sol  =         0.00000000
  ---------------------------------------------------
  free energy    TOTEN  =       -57.99804314 eV

  energy without entropy =      -57.99480257  energy(sigma->0) =      -57.99642286


--------------------------------------------------------------------------------------------------------




----------------------------------------- Iteration    1(   5)  ---------------------------------------


    EDDIAG:  cpu time    0.7300: real time    0.7345
  RMM-DIIS:  cpu time    0.4127: real time    0.4152
    ORTHCH:  cpu time    0.1823: real time    0.1832
       DOS:  cpu time    0.0022: real time    0.0022
    --------------------------------------------
      LOOP:  cpu time    1.3283: real time    1.3502

 eigenvalue-minimisations  :  5408
 total energy-change (2. order) :-0.9842194E+02  (-0.7089078E+02)
 number of electron     130.0000000 magnetization      34.0000000
 augmentation part      130.0000000 magnetization      34.0000000

 Free energy of the ion-electron system (eV)
  ---------------------------------------------------
  alpha Z        PSCENC =       251.93084815
  Ewald energy   TEWEN  =     -5393.34801868
  -Hartree energ DENC   =     -2361.26145689
  -exchange      EXHF   =         0.00000000
  -V(xc)+E(xc)   XCENC  =       205.84698432
  PAW double counting   =      6472.52975016    -6218.87994518
  entropy T*S    EENTRO =        -0.00287754
  eigenvalues    EBANDS =      -788.69912381
  atomic energy  EATOM  =      7675.46385950
  Solvation  Ediel_sol  =         0.00000000
  ---------------------------------------------------
  free energy    TOTEN  =      -156.41997997 eV

  energy without entropy =     -156.41710243  energy(sigma->0) =     -156.41854120


--------------------------------------------------------------------------------------------------------




----------------------------------------- Iteration    1(   6)  ---------------------------------------


    EDDIAG:  cpu time    0.7138: real time    0.7185
  RMM-DIIS:  cpu time    0.4175: real time    0.4198
    ORTHCH:  cpu time    0.1832: real time    0.1843
       DOS:  cpu time    0.0022: real time    0.0022
    --------------------------------------------
      LOOP:  cpu time    1.3179: real time    1.3401

 eigenvalue-minimisations  :  5408
 total energy-change (2. order) :-0.4521886E+02  (-0.2974557E+02)
 number of electron     130.0000000 magnetization      34.0000000
 augmentation part      130.0000000 magnetization      34.0000000

 Free energy of the ion-electron system (eV)
  ---------------------------------------------------
  alpha Z        PSCENC =       251.93084815
  Ewald energy   TEWEN  =     -5393.34801868
  -Hartree energ DENC   =     -2361.26145689
  -exchange      EXHF   =         0.00000000
  -V(xc)+E(xc)   XCENC  =       205.84698432
  PAW double counting   =      6472.52975016    -6218.87994518
  entropy T*S    EENTRO =        -0.00337637
  eigenvalues    EBANDS =      -833.91748163
  atomic energy  EATOM  =      7675.46385950
  Solvation  Ediel_sol  =         0.00000000
  ---------------------------------------------------
  free energy    TOTEN  =      -201.63883662 eV

  energy without entropy =     -201.63546025  energy(sigma->0) =     -201.63714844


--------------------------------------------------------------------------------------------------------




----------------------------------------- Iteration    1(   7)  ---------------------------------------


    EDDIAG:  cpu time    0.7153: real time    0.7198
  RMM-DIIS:  cpu time    0.4142: real time    0.4165
    ORTHCH:  cpu time    0.1821: real time    0.1831
       DOS:  cpu time    0.0019: real time    0.0020
    --------------------------------------------
      LOOP:  cpu time    1.3147: real time    1.3355

 eigenvalue-minimisations  :  5408
 total energy-change (2. order) :-0.2521012E+02  (-0.1857228E+02)
 number of electron     130.0000000 magnetization      34.0000000
 augmentation part      130.0000000 magnetization      34.0000000

 Free energy of the ion-electron system (eV)
  ---------------------------------------------------
  alpha Z        PSCENC =       251.93084815
  Ewald energy   TEWEN  =     -5393.34801868
  -Hartree energ DENC   =     -2361.26145689
  -exchange      EXHF   =         0.00000000
  -V(xc)+E(xc)   XCENC  =       205.84698432
  PAW double counting   =      6472.52975016    -6218.87994518
  entropy T*S    EENTRO =        -0.00194989
  eigenvalues    EBANDS =      -859.12903293
  atomic energy  EATOM  =      7675.46385950
  Solvation  Ediel_sol  =         0.00000000
  ---------------------------------------------------
  free energy    TOTEN  =      -226.84896144 eV

  energy without entropy =     -226.84701155  energy(sigma->0) =     -226.84798650


--------------------------------------------------------------------------------------------------------




----------------------------------------- Iteration    1(   8)  ---------------------------------------


    EDDIAG:  cpu time    0.7295: real time    0.7352
  RMM-DIIS:  cpu time    0.4128: real time    0.4154
    ORTHCH:  cpu time    0.1838: real time    0.1850
       DOS:  cpu time    0.0021: real time    0.0021
    --------------------------------------------
      LOOP:  cpu time    1.3295: real time    1.3527

 eigenvalue-minimisations  :  5408
 total energy-change (2. order) :-0.1177476E+02  (-0.8291494E+01)
 number of electron     130.0000000 magnetization      34.0000000
 augmentation part      130.0000000 magnetization      34.0000000

 Free energy of the ion-electron system (eV)
  ---------------------------------------------------
  alpha Z        PSCENC =       251.93084815
  Ewald energy   TEWEN  =     -5393.34801868
  -Hartree energ DENC   =     -2361.26145689
  -exchange      EXHF   =         0.00000000
  -V(xc)+E(xc)   XCENC  =       205.84698432
  PAW double counting   =      6472.52975016    -6218.87994518
  entropy T*S    EENTRO =        -0.00211646
  eigenvalues    EBANDS =      -870.90362575
  atomic energy  EATOM  =      7675.46385950
  Solvation  Ediel_sol  =         0.00000000
  ---------------------------------------------------
  free energy    TOTEN  =      -238.62372083 eV

  energy without entropy =     -238.62160437  energy(sigma->0) =     -238.62266260


--------------------------------------------------------------------------------------------------------




----------------------------------------- Iteration    1(   9)  ---------------------------------------


    EDDIAG:  cpu time    0.7111: real time    0.7166
  RMM-DIIS:  cpu time    1.2719: real time    1.2795
    ORTHCH:  cpu time    0.1836: real time    0.1847
       DOS:  cpu time    0.0021: real time    0.0021
    --------------------------------------------
      LOOP:  cpu time    2.1697: real time    2.1985

 eigenvalue-minimisations  : 18148
 total energy-change (2. order) :-0.1434969E+02  (-0.1276065E+02)
 number of electron     130.0000000 magnetization      34.0000000
 augmentation part      130.0000000 magnetization      34.0000000

 Free energy of the ion-electron system (eV)
  ---------------------------------------------------
  alpha Z        PSCENC =       251.93084815
  Ewald energy   TEWEN  =     -5393.34801868
  -Hartree energ DENC   =     -2361.26145689
  -exchange      EXHF   =         0.00000000
  -V(xc)+E(xc)   XCENC  =       205.84698432
  PAW double counting   =      6472.52975016    -6218.87994518
  entropy T*S    EENTRO =        -0.00186374
  eigenvalues    EBANDS =      -885.25357165
  atomic energy  EATOM  =      7675.46385950
  Solvation  Ediel_sol  =         0.00000000
  ---------------------------------------------------
  free energy    TOTEN  =      -252.97341401 eV

  energy without entropy =     -252.97155028  energy(sigma->0) =     -252.97248214


--------------------------------------------------------------------------------------------------------




----------------------------------------- Iteration    1(  10)  ---------------------------------------


    EDDIAG:  cpu time    0.7126: real time    0.7170
  RMM-DIIS:  cpu time    1.2747: real time    1.2844
    ORTHCH:  cpu time    0.1856: real time    0.1870
       DOS:  cpu time    0.0019: real time    0.0019
    --------------------------------------------
      LOOP:  cpu time    2.1764: real time    2.2054

 eigenvalue-minimisations  : 18296
 total energy-change (2. order) :-0.4643355E+00  (-0.2979737E+00)
 number of electron     130.0000000 magnetization      34.0000000
 augmentation part      130.0000000 magnetization      34.0000000

 Free energy of the ion-electron system (eV)
  ---------------------------------------------------
  alpha Z        PSCENC =       251.93084815
  Ewald energy   TEWEN  =     -5393.34801868
  -Hartree energ DENC   =     -2361.26145689
  -exchange      EXHF   =         0.00000000
  -V(xc)+E(xc)   XCENC  =       205.84698432
  PAW double counting   =      6472.52975016    -6218.87994518
  entropy T*S    EENTRO =        -0.00122946
  eigenvalues    EBANDS =      -885.71854147
  atomic energy  EATOM  =      7675.46385950
  Solvation  Ediel_sol  =         0.00000000
  ---------------------------------------------------
  free energy    TOTEN  =      -253.43774955 eV

  energy without entropy =     -253.43652010  energy(sigma->0) =     -253.43713483


--------------------------------------------------------------------------------------------------------




----------------------------------------- Iteration    1(  11)  ---------------------------------------


    EDDIAG:  cpu time    0.7187: real time    0.7239
  RMM-DIIS:  cpu time    1.2648: real time    1.2732
    ORTHCH:  cpu time    0.1844: real time    0.1855
       DOS:  cpu time    0.0021: real time    0.0021
    --------------------------------------------
      LOOP:  cpu time    2.1713: real time    2.2011

 eigenvalue-minimisations  : 18261
 total energy-change (2. order) :-0.4072266E-01  (-0.2504470E-01)
 number of electron     130.0000000 magnetization      34.0000000
 augmentation part      130.0000000 magnetization      34.0000000

 Free energy of the ion-electron system (eV)
  ---------------------------------------------------
  alpha Z        PSCENC =       251.93084815
  Ewald energy   TEWEN  =     -5393.34801868
  -Hartree energ DENC   =     -2361.26145689
  -exchange      EXHF   =         0.00000000
  -V(xc)+E(xc)   XCENC  =       205.84698432
  PAW double counting   =      6472.52975016    -6218.87994518
  entropy T*S    EENTRO =        -0.00126132
  eigenvalues    EBANDS =      -885.75923227
  atomic energy  EATOM  =      7675.46385950
  Solvation  Ediel_sol  =         0.00000000
  ---------------------------------------------------
  free energy    TOTEN  =      -253.47847221 eV

  energy without entropy =     -253.47721089  energy(sigma->0) =     -253.47784155


--------------------------------------------------------------------------------------------------------




----------------------------------------- Iteration    1(  12)  ---------------------------------------


    EDDIAG:  cpu time    0.7134: real time    0.7181
  RMM-DIIS:  cpu time    1.1771: real time    1.1844
    ORTHCH:  cpu time    0.1837: real time    0.1847
       DOS:  cpu time    0.0021: real time    0.0021
    CHARGE:  cpu time    0.0549: real time    0.0553
    MIXING:  cpu time    0.0015: real time    0.0018
    --------------------------------------------
      LOOP:  cpu time    2.1340: real time    2.1614

 eigenvalue-minimisations  : 16968
 total energy-change (2. order) :-0.5750020E-02  (-0.4729599E-02)
 number of electron     130.0000064 magnetization      23.6692505
 augmentation part       14.6273100 magnetization      21.7875178

 Broyden mixing:
  rms(total) = 0.89903E+01    rms(broyden)= 0.89901E+01
  rms(prec ) = 0.97790E+01
  weight for this iteration     100.00

 Free energy of the ion-electron system (eV)
  ---------------------------------------------------
  alpha Z        PSCENC =       251.93084815
  Ewald energy   TEWEN  =     -5393.34801868
  -Hartree energ DENC   =     -2361.26145689
  -exchange      EXHF   =         0.00000000
  -V(xc)+E(xc)   XCENC  =       205.84698432
  PAW double counting   =      6472.52975016    -6218.87994518
  entropy T*S    EENTRO =        -0.00132284
  eigenvalues    EBANDS =      -885.76492077
  atomic energy  EATOM  =      7675.46385950
  Solvation  Ediel_sol  =         0.00000000
  ---------------------------------------------------
  free energy    TOTEN  =      -253.48422223 eV

  energy without entropy =     -253.48289940  energy(sigma->0) =     -253.48356081


--------------------------------------------------------------------------------------------------------




----------------------------------------- Iteration    1(  13)  ---------------------------------------


    POTLOK:  cpu time    0.0131: real time    0.0132
    SETDIJ:  cpu time    0.0047: real time    0.0048
    EDDIAG:  cpu time    0.7243: real time    0.7288
  RMM-DIIS:  cpu time    1.0025: real time    1.0082
    ORTHCH:  cpu time    0.1837: real time    0.1846
       DOS:  cpu time    0.0024: real time    0.0024
    CHARGE:  cpu time    0.0576: real time    0.0579
    MIXING:  cpu time    0.0005: real time    0.0005
    --------------------------------------------
      LOOP:  cpu time    1.9901: real time    2.0146

 eigenvalue-minimisations  : 14453
 total energy-change (2. order) : 0.5238188E+02  (-0.4388952E+02)
 number of electron     130.0000045 magnetization      19.8376261
 augmentation part       23.9362225 magnetization      16.5451850

 Broyden mixing:
  rms(total) = 0.62884E+01    rms(broyden)= 0.62878E+01
  rms(prec ) = 0.74973E+01
  weight for this iteration     100.00

 eigenvalues of (default mixing * dielectric matrix)
  average eigenvalue GAMMA=   0.6244
  0.6244

 Free energy of the ion-electron system (eV)
  ---------------------------------------------------
  alpha Z        PSCENC =       251.93084815
  Ewald energy   TEWEN  =     -5393.34801868
  -Hartree energ DENC   =     -2648.01883867
  -exchange      EXHF   =         0.00000000
  -V(xc)+E(xc)   XCENC  =       244.00344145
  PAW double counting   =      8195.29387665    -7943.30474796
  entropy T*S    EENTRO =        -0.01477733
  eigenvalues    EBANDS =      -583.10798467
  atomic energy  EATOM  =      7675.46385950
  Solvation  Ediel_sol  =         0.00000000
  ---------------------------------------------------
  free energy    TOTEN  =      -201.10234157 eV

  energy without entropy =     -201.08756423  energy(sigma->0) =     -201.09495290


--------------------------------------------------------------------------------------------------------




----------------------------------------- Iteration    1(  14)  ---------------------------------------


    POTLOK:  cpu time    0.0128: real time    0.0129
    SETDIJ:  cpu time    0.0047: real time    0.0047
    EDDIAG:  cpu time    0.7165: real time    0.7222
  RMM-DIIS:  cpu time    0.9668: real time    0.9725
    ORTHCH:  cpu time    0.1831: real time    0.1842
       DOS:  cpu time    0.0020: real time    0.0020
    CHARGE:  cpu time    0.0557: real time    0.0560
    MIXING:  cpu time    0.0005: real time    0.0005
    --------------------------------------------
      LOOP:  cpu time    1.9434: real time    1.9705

 eigenvalue-minimisations  : 13926
 total energy-change (2. order) :-0.5867348E+01  (-0.6528262E+01)
 number of electron     130.0000056 magnetization      13.1853879
 augmentation part       14.0056358 magnetization      10.8687273

 Broyden mixing:
  rms(total) = 0.45592E+01    rms(broyden)= 0.45590E+01
  rms(prec ) = 0.50936E+01
  weight for this iteration     100.00

 eigenvalues of (default mixing * dielectric matrix)
  average eigenvalue GAMMA=   0.7259
  1.1088  0.3431

 Free energy of the ion-electron system (eV)
  ---------------------------------------------------
  alpha Z        PSCENC =       251.93084815
  Ewald energy   TEWEN  =     -5393.34801868
  -Hartree energ DENC   =     -2581.27913191
  -exchange      EXHF   =         0.00000000
  -V(xc)+E(xc)   XCENC  =       224.44876094
  PAW double counting   =      8574.10201802    -8330.32486428
  entropy T*S    EENTRO =        -0.00292488
  eigenvalues    EBANDS =      -627.96023660
  atomic energy  EATOM  =      7675.46385950
  Solvation  Ediel_sol  =         0.00000000
  ---------------------------------------------------
  free energy    TOTEN  =      -206.96968972 eV

  energy without entropy =     -206.96676484  energy(sigma->0) =     -206.96822728


--------------------------------------------------------------------------------------------------------




----------------------------------------- Iteration    1(  15)  ---------------------------------------


    POTLOK:  cpu time    0.0130: real time    0.0131
    SETDIJ:  cpu time    0.0047: real time    0.0047
    EDDIAG:  cpu time    0.7197: real time    0.7238
  RMM-DIIS:  cpu time    1.0144: real time    1.0214
    ORTHCH:  cpu time    0.1833: real time    0.1843
       DOS:  cpu time    0.0022: real time    0.0022
    CHARGE:  cpu time    0.0550: real time    0.0553
    MIXING:  cpu time    0.0005: real time    0.0005
    --------------------------------------------
      LOOP:  cpu time    1.9941: real time    2.0212

 eigenvalue-minimisations  : 14316
 total energy-change (2. order) : 0.5701089E+01  (-0.1039418E+01)
 number of electron     130.0000054 magnetization       9.2191021
 augmentation part       15.6096436 magnetization       8.1299342

 Broyden mixing:
  rms(total) = 0.18384E+01    rms(broyden)= 0.18384E+01
  rms(prec ) = 0.20751E+01
  weight for this iteration     100.00

 eigenvalues of (default mixing * dielectric matrix)
  average eigenvalue GAMMA=   0.8506
  1.4965  0.6356  0.4196

 Free energy of the ion-electron system (eV)
  ---------------------------------------------------
  alpha Z        PSCENC =       251.93084815
  Ewald energy   TEWEN  =     -5393.34801868
  -Hartree energ DENC   =     -2604.38359722
  -exchange      EXHF   =         0.00000000
  -V(xc)+E(xc)   XCENC  =       223.41806381
  PAW double counting   =      9516.32647221    -9272.10603172
  entropy T*S    EENTRO =        -0.00150781
  eigenvalues    EBANDS =      -598.56868898
  atomic energy  EATOM  =      7675.46385950
  Solvation  Ediel_sol  =         0.00000000
  ---------------------------------------------------
  free energy    TOTEN  =      -201.26860075 eV

  energy without entropy =     -201.26709294  energy(sigma->0) =     -201.26784684


--------------------------------------------------------------------------------------------------------




----------------------------------------- Iteration    1(  16)  ---------------------------------------


    POTLOK:  cpu time    0.0134: real time    0.0134
    SETDIJ:  cpu time    0.0048: real time    0.0048
    EDDIAG:  cpu time    0.7161: real time    0.7211
  RMM-DIIS:  cpu time    1.0104: real time    1.0169
    ORTHCH:  cpu time    0.1835: real time    0.1845
       DOS:  cpu time    0.0008: real time    0.0008
    CHARGE:  cpu time    0.0573: real time    0.0576
    MIXING:  cpu time    0.0006: real time    0.0006
    --------------------------------------------
      LOOP:  cpu time    1.9883: real time    2.1564

 eigenvalue-minimisations  : 14509
 total energy-change (2. order) :-0.1566380E+01  (-0.7155109E+00)
 number of electron     130.0000054 magnetization       8.2849626
 augmentation part       16.7292297 magnetization       7.5020353

 Broyden mixing:
  rms(total) = 0.96194E+00    rms(broyden)= 0.96188E+00
  rms(prec ) = 0.10030E+01
  weight for this iteration     100.00

 eigenvalues of (default mixing * dielectric matrix)
  average eigenvalue GAMMA=   0.8552
  1.2037  1.2037  0.4267  0.5866

 Free energy of the ion-electron system (eV)
  ---------------------------------------------------
  alpha Z        PSCENC =       251.93084815
  Ewald energy   TEWEN  =     -5393.34801868
  -Hartree energ DENC   =     -2613.71801622
  -exchange      EXHF   =         0.00000000
  -V(xc)+E(xc)   XCENC  =       223.63172820
  PAW double counting   =      9957.25578337    -9709.93299498
  entropy T*S    EENTRO =        -0.00000000
  eigenvalues    EBANDS =      -594.11817029
  atomic energy  EATOM  =      7675.46385950
  Solvation  Ediel_sol  =         0.00000000
  ---------------------------------------------------
  free energy    TOTEN  =      -202.83498096 eV

  energy without entropy =     -202.83498096  energy(sigma->0) =     -202.83498096


--------------------------------------------------------------------------------------------------------




----------------------------------------- Iteration    1(  17)  ---------------------------------------


    POTLOK:  cpu time    0.0130: real time    0.0131
    SETDIJ:  cpu time    0.0046: real time    0.0047
    EDDIAG:  cpu time    0.7201: real time    0.7253
  RMM-DIIS:  cpu time    1.0555: real time    1.0622
    ORTHCH:  cpu time    0.1840: real time    0.1849
       DOS:  cpu time    0.0008: real time    0.0008
    CHARGE:  cpu time    0.0550: real time    0.0552
    MIXING:  cpu time    0.0005: real time    0.0005
    --------------------------------------------
      LOOP:  cpu time    2.0352: real time    2.0617

 eigenvalue-minimisations  : 15378
 total energy-change (2. order) :-0.2464885E+00  (-0.1193317E+00)
 number of electron     130.0000053 magnetization       6.7999679
 augmentation part       16.6919385 magnetization       6.0707412

 Broyden mixing:
  rms(total) = 0.69066E+00    rms(broyden)= 0.69065E+00
  rms(prec ) = 0.72634E+00
  weight for this iteration     100.00

 eigenvalues of (default mixing * dielectric matrix)
  average eigenvalue GAMMA=   0.9147
  1.4433  1.4433  0.7720  0.4574  0.4574

 Free energy of the ion-electron system (eV)
  ---------------------------------------------------
  alpha Z        PSCENC =       251.93084815
  Ewald energy   TEWEN  =     -5393.34801868
  -Hartree energ DENC   =     -2607.03740140
  -exchange      EXHF   =         0.00000000
  -V(xc)+E(xc)   XCENC  =       222.78993954
  PAW double counting   =      9881.08532825    -9633.47062091
  entropy T*S    EENTRO =        -0.00000000
  eigenvalues    EBANDS =      -600.49540394
  atomic energy  EATOM  =      7675.46385950
  Solvation  Ediel_sol  =         0.00000000
  ---------------------------------------------------
  free energy    TOTEN  =      -203.08146948 eV

  energy without entropy =     -203.08146948  energy(sigma->0) =     -203.08146948


--------------------------------------------------------------------------------------------------------




----------------------------------------- Iteration    1(  18)  ---------------------------------------


    POTLOK:  cpu time    0.0126: real time    0.0126
    SETDIJ:  cpu time    0.0046: real time    0.0047
    EDDIAG:  cpu time    0.7162: real time    0.7202
  RMM-DIIS:  cpu time    1.0803: real time    1.0855
    ORTHCH:  cpu time    0.1820: real time    0.1829
       DOS:  cpu time    0.0008: real time    0.0008
    CHARGE:  cpu time    0.0549: real time    0.0552
    MIXING:  cpu time    0.0006: real time    0.0006
    --------------------------------------------
      LOOP:  cpu time    2.0533: real time    2.0759

 eigenvalue-minimisations  : 15557
 total energy-change (2. order) :-0.3648948E+00  (-0.2984164E-01)
 number of electron     130.0000054 magnetization       3.4686266
 augmentation part       16.7959157 magnetization       2.7701891

 Broyden mixing:
  rms(total) = 0.40847E+00    rms(broyden)= 0.40846E+00
  rms(prec ) = 0.43315E+00
  weight for this iteration     100.00

 eigenvalues of (default mixing * dielectric matrix)
  average eigenvalue GAMMA=   1.0357
  1.8823  1.8823  0.7834  0.7834  0.4414  0.4414

 Free energy of the ion-electron system (eV)
  ---------------------------------------------------
  alpha Z        PSCENC =       251.93084815
  Ewald energy   TEWEN  =     -5393.34801868
  -Hartree energ DENC   =     -2603.46774889
  -exchange      EXHF   =         0.00000000
  -V(xc)+E(xc)   XCENC  =       222.23933701
  PAW double counting   =      9889.12929605    -9640.90491549
  entropy T*S    EENTRO =        -0.00000000
  eigenvalues    EBANDS =      -604.48902191
  atomic energy  EATOM  =      7675.46385950
  Solvation  Ediel_sol  =         0.00000000
  ---------------------------------------------------
  free energy    TOTEN  =      -203.44636426 eV

  energy without entropy =     -203.44636426  energy(sigma->0) =     -203.44636426


--------------------------------------------------------------------------------------------------------




----------------------------------------- Iteration    1(  19)  ---------------------------------------


    POTLOK:  cpu time    0.0128: real time    0.0129
    SETDIJ:  cpu time    0.0047: real time    0.0047
    EDDIAG:  cpu time    0.7240: real time    0.7291
  RMM-DIIS:  cpu time    1.0291: real time    1.0362
    ORTHCH:  cpu time    0.1825: real time    0.1835
       DOS:  cpu time    0.0009: real time    0.0009
    CHARGE:  cpu time    0.0545: real time    0.0548
    MIXING:  cpu time    0.0006: real time    0.0006
    --------------------------------------------
      LOOP:  cpu time    2.0105: real time    2.0376

 eigenvalue-minimisations  : 14882
 total energy-change (2. order) :-0.5927721E+00  (-0.5825881E-01)
 number of electron     130.0000054 magnetization       2.4096629
 augmentation part       16.9979687 magnetization       1.8238053

 Broyden mixing:
  rms(total) = 0.23538E+00    rms(broyden)= 0.23536E+00
  rms(prec ) = 0.24029E+00
  weight for this iteration     100.00

 eigenvalues of (default mixing * dielectric matrix)
  average eigenvalue GAMMA=   1.0615
  2.3295  1.7119  1.2754  0.6915  0.5407  0.4314  0.4504

 Free energy of the ion-electron system (eV)
  ---------------------------------------------------
  alpha Z        PSCENC =       251.93084815
  Ewald energy   TEWEN  =     -5393.34801868
  -Hartree energ DENC   =     -2606.60934901
  -exchange      EXHF   =         0.00000000
  -V(xc)+E(xc)   XCENC  =       222.39101520
  PAW double counting   =     10015.55595880    -9765.65664818
  entropy T*S    EENTRO =        -0.00000000
  eigenvalues    EBANDS =      -603.76680217
  atomic energy  EATOM  =      7675.46385950
  Solvation  Ediel_sol  =         0.00000000
  ---------------------------------------------------
  free energy    TOTEN  =      -204.03913639 eV

  energy without entropy =     -204.03913639  energy(sigma->0) =     -204.03913639


--------------------------------------------------------------------------------------------------------




----------------------------------------- Iteration    1(  20)  ---------------------------------------


    POTLOK:  cpu time    0.0127: real time    0.0128
    SETDIJ:  cpu time    0.0047: real time    0.0047
    EDDIAG:  cpu time    0.7153: real time    0.7190
  RMM-DIIS:  cpu time    1.0927: real time    1.0986
    ORTHCH:  cpu time    0.1827: real time    0.1835
       DOS:  cpu time    0.0009: real time    0.0009
    CHARGE:  cpu time    0.0543: real time    0.0546
    MIXING:  cpu time    0.0007: real time    0.0007
    --------------------------------------------
      LOOP:  cpu time    2.0654: real time    2.0894

 eigenvalue-minimisations  : 15492
 total energy-change (2. order) :-0.1109276E+00  (-0.9742972E-02)
 number of electron     130.0000053 magnetization       2.2659254
 augmentation part       17.0358559 magnetization       1.7214150

 Broyden mixing:
  rms(total) = 0.11865E+00    rms(broyden)= 0.11864E+00
  rms(prec ) = 0.13736E+00
  weight for this iteration     100.00

 eigenvalues of (default mixing * dielectric matrix)
  average eigenvalue GAMMA=   1.1054
  2.6214  1.5867  1.5867  0.9762  0.5983  0.5983  0.4377  0.4377

 Free energy of the ion-electron system (eV)
  ---------------------------------------------------
  alpha Z        PSCENC =       251.93084815
  Ewald energy   TEWEN  =     -5393.34801868
  -Hartree energ DENC   =     -2610.01114045
  -exchange      EXHF   =         0.00000000
  -V(xc)+E(xc)   XCENC  =       222.54376426
  PAW double counting   =     10091.98631518    -9842.45177028
  entropy T*S    EENTRO =        -0.00000000
  eigenvalues    EBANDS =      -600.26392166
  atomic energy  EATOM  =      7675.46385950
  Solvation  Ediel_sol  =         0.00000000
  ---------------------------------------------------
  free energy    TOTEN  =      -204.15006398 eV

  energy without entropy =     -204.15006398  energy(sigma->0) =     -204.15006398


--------------------------------------------------------------------------------------------------------




----------------------------------------- Iteration    1(  21)  ---------------------------------------


    POTLOK:  cpu time    0.0127: real time    0.0127
    SETDIJ:  cpu time    0.0046: real time    0.0047
    EDDIAG:  cpu time    0.7150: real time    0.7191
  RMM-DIIS:  cpu time    0.9787: real time    0.9836
    ORTHCH:  cpu time    0.1853: real time    0.1863
       DOS:  cpu time    0.0008: real time    0.0008
    CHARGE:  cpu time    0.0549: real time    0.0551
    MIXING:  cpu time    0.0007: real time    0.0007
    --------------------------------------------
      LOOP:  cpu time    1.9541: real time    1.9777

 eigenvalue-minimisations  : 14175
 total energy-change (2. order) : 0.7075506E-02  (-0.2714700E-02)
 number of electron     130.0000053 magnetization       2.1163162
 augmentation part       16.9244480 magnetization       1.5674190

 Broyden mixing:
  rms(total) = 0.72929E-01    rms(broyden)= 0.72926E-01
  rms(prec ) = 0.78287E-01
  weight for this iteration     100.00

 eigenvalues of (default mixing * dielectric matrix)
  average eigenvalue GAMMA=   1.1358
  2.8005  1.7267  1.7267  1.0513  0.7805  0.6350  0.6350  0.4333  0.4333

 Free energy of the ion-electron system (eV)
  ---------------------------------------------------
  alpha Z        PSCENC =       251.93084815
  Ewald energy   TEWEN  =     -5393.34801868
  -Hartree energ DENC   =     -2612.58176082
  -exchange      EXHF   =         0.00000000
  -V(xc)+E(xc)   XCENC  =       222.55029528
  PAW double counting   =     10114.74997157    -9865.66680035
  entropy T*S    EENTRO =        -0.00000000
  eigenvalues    EBANDS =      -597.24138314
  atomic energy  EATOM  =      7675.46385950
  Solvation  Ediel_sol  =         0.00000000
  ---------------------------------------------------
  free energy    TOTEN  =      -204.14298848 eV

  energy without entropy =     -204.14298848  energy(sigma->0) =     -204.14298848


[...]
     57       0.0247      1.00000
     58       0.0773      1.00000
     59       0.2788      1.00000
     60       0.3114      1.00000
     61       0.3118      1.00000
     62       0.3420      1.00000
     63       0.4724      1.00000
     64       0.5059      1.00000
     65       4.1419      0.00000
     66       4.1566      0.00000
     67       4.2363      0.00000
     68       4.2651      0.00000
     69       4.8653      0.00000
     70       4.9783      0.00000
     71       5.0417      0.00000
     72       5.0592      0.00000
     73       5.2337      0.00000
     74       5.2557      0.00000
     75       5.4357      0.00000
     76       5.4540      0.00000
     77       5.7716      0.00000
     78       5.7917      0.00000
     79       5.9649      0.00000
     80       6.0811      0.00000
     81       6.2342      0.00000
     82       6.2613      0.00000
     83       6.3346      0.00000
     84       6.3554      0.00000
     85       8.5247      0.00000
     86       8.6208      0.00000
     87       8.8464      0.00000
     88       8.8853      0.00000
     89       9.3373      0.00000
     90       9.3414      0.00000
     91      10.0943      0.00000
     92      10.1250      0.00000
     93      10.1981      0.00000
     94      10.2398      0.00000
     95      10.4174      0.00000
     96      10.6224      0.00000
     97      10.6639      0.00000
     98      10.8805      0.00000
     99      11.4122      0.00000
    100      11.5286      0.00000
    101      12.3471      0.00000
    102      12.7212      0.00000
    103      12.9854      0.00000
    104      13.1306      0.00000

 k-point    26 :      -0.2500   -0.2500    0.3333
  band No.  band energies     occupation 
      1     -15.9274      1.00000
      2     -15.9107      1.00000
      3     -15.5545      1.00000
      4     -15.5470      1.00000
      5     -15.5130      1.00000
      6     -15.4878      1.00000
      7     -15.4694      1.00000
      8     -15.4669      1.00000
      9     -15.1281      1.00000
     10     -15.1257      1.00000
     11     -14.8298      1.00000
     12     -14.8284      1.00000
     13     -14.6632      1.00000
     14     -14.6559      1.00000
     15     -14.6003      1.00000
     16     -14.5909      1.00000
     17      -2.8814      1.00000
     18      -2.8779      1.00000
     19      -2.7986      1.00000
     20      -2.7772      1.00000
     21      -2.6675      1.00000
     22      -2.6586      1.00000
     23      -2.5476      1.00000
     24      -2.5339      1.00000
     25      -2.4178      1.00000
     26      -2.3757      1.00000
     27      -2.1950      1.00000
     28      -2.0109      1.00000
     29      -1.9631      1.00000
     30      -1.9275      1.00000
     31      -1.7940      1.00000
     32      -1.7932      1.00000
     33      -1.6624      1.00000
     34      -1.6165      1.00000
     35      -1.5449      1.00000
     36      -1.4791      1.00000
     37      -1.3144      1.00000
     38      -1.2015      1.00000
     39      -1.1294      1.00000
     40      -1.0715      1.00000
     41      -0.8950      1.00000
     42      -0.8449      1.00000
     43      -0.8445      1.00000
     44      -0.8035      1.00000
     45      -0.7691      1.00000
     46      -0.7515      1.00000
     47      -0.6729      1.00000
     48      -0.6394      1.00000
     49      -0.4739      1.00000
     50      -0.4303      1.00000
     51      -0.3814      1.00000
     52      -0.3579      1.00000
     53      -0.2914      1.00000
     54      -0.2705      1.00000
     55      -0.1668      1.00000
     56      -0.1608      1.00000
     57      -0.1100      1.00000
     58      -0.1008      1.00000
     59       0.2338      1.00000
     60       0.2446      1.00000
     61       0.3024      1.00000
     62       0.3258      1.00000
     63       0.3780      1.00000
     64       0.3925      1.00000
     65       4.1758      0.00000
     66       4.1971      0.00000
     67       4.2809      0.00000
     68       4.3004      0.00000
     69       4.8740      0.00000
     70       4.9787      0.00000
     71       5.0285      0.00000
     72       5.0484      0.00000
     73       5.2177      0.00000
     74       5.2319      0.00000
     75       5.2700      0.00000
     76       5.2737      0.00000
     77       5.6801      0.00000
     78       5.7319      0.00000
     79       6.0383      0.00000
     80       6.0906      0.00000
     81       6.1127      0.00000
     82       6.1604      0.00000
     83       6.3769      0.00000
     84       6.3954      0.00000
     85       7.7134      0.00000
     86       7.8993      0.00000
     87       8.7092      0.00000
     88       8.9328      0.00000
     89       9.6393      0.00000
     90       9.6949      0.00000
     91      10.3795      0.00000
     92      10.4591      0.00000
     93      10.5827      0.00000
     94      10.6564      0.00000
     95      10.8101      0.00000
     96      10.9847      0.00000
     97      11.1180      0.00000
     98      11.3192      0.00000
     99      12.0032      0.00000
    100      12.0519      0.00000
    101      12.5955      0.00000
    102      12.7717      0.00000
    103      12.9881      0.00000
    104      13.2820      0.00000


--------------------------------------------------------------------------------------------------------


 soft charge-density along one line, spin component           1
         0         1         2         3         4         5         6         7         8         9
 total charge-density along one line
 
 soft charge-density along one line, spin component           2
         0         1         2         3         4         5         6         7         8         9
 total charge-density along one line
 
 pseudopotential strength for first ion, spin component:           1
  1.184   5.298  -0.003  -0.002   0.001
  5.298  22.664  -0.010  -0.008   0.004
 -0.003  -0.010  -0.307   0.000  -0.000
 -0.002  -0.008   0.000  -0.308   0.001
  0.001   0.004  -0.000   0.001  -0.307
 pseudopotential strength for first ion, spin component:           2
  1.184   5.299  -0.003  -0.002   0.001
  5.299  22.665  -0.010  -0.009   0.004
 -0.003  -0.010  -0.307   0.000  -0.000
 -0.002  -0.009   0.000  -0.308   0.000
  0.001   0.004  -0.000   0.000  -0.306
 total augmentation occupancy for first ion, spin component:           1
  1.279  -0.034   0.036   0.033  -0.014
 -0.034   0.001  -0.001  -0.001   0.000
  0.036  -0.001   0.118  -0.016   0.013
  0.033  -0.001  -0.016   0.141  -0.004
 -0.014   0.000   0.013  -0.004   0.107
 total augmentation occupancy for first ion, spin component:           2
 -0.001   0.000  -0.001  -0.000  -0.000
  0.000  -0.000   0.000   0.000  -0.000
 -0.001   0.000   0.000  -0.001   0.000
 -0.000   0.000  -0.001  -0.000  -0.000
 -0.000  -0.000   0.000  -0.000  -0.000


------------------------ aborting loop because EDIFF is reached ----------------------------------------


    CHARGE:  cpu time    0.0547: real time    0.0551
    FORLOC:  cpu time    0.0012: real time    0.0012
    FORNL :  cpu time    0.3838: real time    0.3859
    STRESS:  cpu time    1.1500: real time    1.1559
    FORCOR:  cpu time    0.0127: real time    0.0127
    FORHAR:  cpu time    0.0024: real time    0.0024
    MIXING:  cpu time    0.0009: real time    0.0009
    OFIELD:  cpu time    0.0000: real time    0.0000

 ---------------------------------------------------------------------------------------------

         DFTD3 V3.0 Rev 1        
 IVDW         = 12
 DF pbe       
 parameters
 VDW_S6       =    1.0000
 VDW_S8       =    0.7875
 VDW_A1       =    0.4289
 VDW_A2       =    4.4407
 k1-k3        =   16.0000    1.3333   -4.0000
 VDW_RADIUS   =   50.2022 A
 VDW_CNRADIUS =   21.1671 A
 Edisp (eV)   -7.27047

 E6    (eV) :    -4.4609
 E8    (eV) :    -2.8095
 % E8        : 38.64
    FORVDW:  cpu time    0.2143: real time    0.2668

  FORCE on cell =-STRESS in cart. coord.  units (eV):
  Direction    XX          YY          ZZ          XY          YZ          ZX
  --------------------------------------------------------------------------------------
  Alpha Z   251.93085   251.93085   251.93085
  Ewald   -1721.54996 -1832.48670 -1839.33137    -5.15374     0.22396     0.24094
  Hartree   933.54534   823.56733   856.08550    -2.98387     0.06226     0.17032
  E(xc)    -607.88418  -608.50732  -607.68037     1.16684     0.00832     0.01196
  Local    -993.62966  -771.43897  -798.96654    14.15100    -0.22187    -0.37453
  n-local  -342.40832  -341.37861  -342.88057     3.20676     0.02234     0.02221
  augment   180.16460   181.87612   180.17893    -4.95858    -0.03942    -0.03617
  Kinetic  2307.23225  2303.89786  2308.15062    -5.43289    -0.06070    -0.03663
  Fock        0.00000     0.00000     0.00000     0.00000     0.00000     0.00000
  vdW        -7.46243    -7.52758    -7.49718    -0.00280     0.00001     0.00016
  -------------------------------------------------------------------------------------
  Total      -0.06152    -0.06702    -0.01014    -0.00729    -0.00509    -0.00175
  in kB      -0.29153    -0.31761    -0.04806    -0.03454    -0.02414    -0.00827
  external pressure =       -0.22 kB  Pullay stress =        0.00 kB


 VOLUME and BASIS-vectors are now :
 -----------------------------------------------------------------------------
  energy-cutoff  :      600.00
  volume of cell :      338.09
      direct lattice vectors                 reciprocal lattice vectors
     4.948659470 -0.011862150 -0.000763185     0.202075884  0.000399963 -0.000009719
    -0.010820387  5.466834688 -0.000584416     0.000438455  0.182922063 -0.000110052
     0.000586199  0.007517350 12.497186905     0.000012361  0.000008579  0.080018002

  length of vectors
     4.948673746  5.466845427 12.497189180     0.202076280  0.182922622  0.080018004


 FORCES acting on ions
    electron-ion (+dipol)            ewald-force                    non-local-force                 convergence-correction
 -----------------------------------------------------------------------------------------------
   -.218E+01 0.307E+01 0.596E+01   0.201E+01 -.265E+01 -.558E+01   0.164E+00 -.418E+00 -.378E+00   0.313E-04 0.467E-04 -.716E-04
   0.347E+01 -.214E+01 0.134E+01   -.329E+01 0.227E+01 -.113E+01   -.174E+00 -.132E+00 -.210E+00   -.287E-04 -.768E-04 -.786E-04
   0.348E+01 -.217E+01 -.132E+01   -.330E+01 0.229E+01 0.111E+01   -.171E+00 -.126E+00 0.208E+00   -.279E-04 -.801E-04 0.957E-04
   -.221E+01 0.310E+01 -.599E+01   0.204E+01 -.267E+01 0.560E+01   0.167E+00 -.425E+00 0.380E+00   0.289E-04 0.477E-04 0.878E-04
   -.452E+01 -.525E+01 0.222E-01   0.412E+01 0.431E+01 -.192E-01   0.402E+00 0.937E+00 -.110E-02   0.304E-04 -.510E-04 0.129E-04
   0.170E+01 0.668E+01 -.199E-01   -.150E+01 -.676E+01 0.184E-01   -.193E+00 0.887E-01 0.675E-03   -.104E-04 0.847E-04 0.172E-04
   -.802E+01 0.554E+01 0.773E-01   0.691E+01 -.513E+01 -.703E-01   0.111E+01 -.408E+00 -.823E-02   -.151E-04 -.106E-04 0.126E-04
   -.218E+01 0.307E+01 0.596E+01   0.201E+01 -.265E+01 -.558E+01   0.164E+00 -.418E+00 -.378E+00   0.324E-04 0.454E-04 -.113E-03
   0.347E+01 -.214E+01 0.134E+01   -.329E+01 0.227E+01 -.113E+01   -.174E+00 -.132E+00 -.210E+00   -.303E-04 -.779E-04 -.120E-03
   0.348E+01 -.217E+01 -.132E+01   -.330E+01 0.229E+01 0.111E+01   -.171E+00 -.126E+00 0.208E+00   -.287E-04 -.808E-04 0.103E-03
   -.221E+01 0.310E+01 -.599E+01   0.204E+01 -.267E+01 0.560E+01   0.167E+00 -.425E+00 0.380E+00   0.293E-04 0.471E-04 0.976E-04
   -.452E+01 -.525E+01 0.222E-01   0.412E+01 0.431E+01 -.192E-01   0.402E+00 0.937E+00 -.110E-02   0.313E-04 -.485E-04 -.120E-04
   0.170E+01 0.668E+01 -.198E-01   -.150E+01 -.676E+01 0.184E-01   -.193E+00 0.887E-01 0.675E-03   -.108E-04 0.850E-04 -.182E-04
   -.802E+01 0.554E+01 0.773E-01   0.691E+01 -.513E+01 -.703E-01   0.111E+01 -.408E+00 -.823E-02   -.127E-04 -.133E-04 -.120E-04
   -.106E+02 -.103E+02 -.631E-02   0.105E+02 0.101E+02 0.691E-02   0.109E+00 0.140E+00 0.824E-03   0.420E-03 0.944E-04 0.755E-04
   0.904E+01 -.210E+02 -.968E-02   -.874E+01 0.199E+02 0.861E-02   -.290E+00 0.118E+01 0.598E-03   -.607E-03 0.861E-03 0.743E-04
   -.106E+02 -.103E+02 -.619E-02   0.105E+02 0.101E+02 0.691E-02   0.109E+00 0.140E+00 0.824E-03   0.422E-03 0.917E-04 -.807E-04
   0.904E+01 -.210E+02 -.958E-02   -.874E+01 0.199E+02 0.861E-02   -.290E+00 0.118E+01 0.598E-03   -.611E-03 0.865E-03 -.515E-04
   -.417E+02 -.489E+02 -.721E+02   0.462E+02 0.561E+02 0.856E+02   -.450E+01 -.725E+01 -.135E+02   -.255E-03 -.194E-02 -.329E-02
   0.981E+02 -.552E+01 -.167E+00   -.116E+03 0.431E+01 0.185E+00   0.176E+02 0.120E+01 -.177E-01   0.228E-02 0.158E-03 0.911E-04
   -.417E+02 -.487E+02 0.722E+02   0.462E+02 0.559E+02 -.857E+02   -.449E+01 -.719E+01 0.135E+02   -.245E-03 -.196E-02 0.340E-02
   -.831E+01 0.380E+02 0.819E+02   0.115E+02 -.432E+02 -.928E+02   -.314E+01 0.516E+01 0.109E+02   -.177E-02 0.176E-02 -.490E-03
   -.824E+01 0.379E+02 -.819E+02   0.114E+02 -.430E+02 0.928E+02   -.313E+01 0.514E+01 -.110E+02   -.169E-02 0.181E-02 0.601E-03
   -.554E+01 -.647E+02 0.158E+00   0.852E+01 0.742E+02 -.157E+00   -.297E+01 -.945E+01 -.771E-03   -.166E-02 -.259E-02 0.139E-03
   -.417E+02 0.101E+03 -.101E+00   0.494E+02 -.115E+03 0.124E+00   -.779E+01 0.133E+02 -.222E-01   -.281E-03 0.306E-02 0.102E-03
   0.544E+02 0.775E+01 0.428E-01   -.663E+02 -.114E+02 -.477E-01   0.120E+02 0.360E+01 0.492E-02   0.265E-02 0.914E-03 0.321E-04
   -.417E+02 -.489E+02 -.721E+02   0.462E+02 0.561E+02 0.856E+02   -.450E+01 -.725E+01 -.135E+02   -.258E-03 -.196E-02 -.353E-02
   0.981E+02 -.552E+01 -.166E+00   -.116E+03 0.431E+01 0.185E+00   0.176E+02 0.120E+01 -.177E-01   0.229E-02 0.172E-03 -.111E-03
   -.417E+02 -.487E+02 0.722E+02   0.462E+02 0.559E+02 -.857E+02   -.449E+01 -.719E+01 0.135E+02   -.247E-03 -.199E-02 0.344E-02
   -.831E+01 0.380E+02 0.819E+02   0.115E+02 -.432E+02 -.928E+02   -.314E+01 0.516E+01 0.109E+02   -.176E-02 0.174E-02 -.754E-03
   -.824E+01 0.379E+02 -.819E+02   0.114E+02 -.430E+02 0.928E+02   -.313E+01 0.514E+01 -.110E+02   -.170E-02 0.180E-02 0.645E-03
   -.554E+01 -.647E+02 0.158E+00   0.852E+01 0.742E+02 -.157E+00   -.297E+01 -.945E+01 -.771E-03   -.165E-02 -.257E-02 -.183E-04
   -.417E+02 0.101E+03 -.101E+00   0.494E+02 -.115E+03 0.124E+00   -.779E+01 0.133E+02 -.222E-01   -.276E-03 0.304E-02 -.110E-03
   0.544E+02 0.775E+01 0.429E-01   -.663E+02 -.114E+02 -.477E-01   0.120E+02 0.360E+01 0.492E-02   0.263E-02 0.914E-03 -.122E-03
 -----------------------------------------------------------------------------------------------
   -.925E+01 -.107E+02 0.761E-01   -.284E-13 0.675E-13 -.823E-13   0.925E+01 0.107E+02 -.663E-01   -.229E-02 0.418E-02 0.377E-04
 
 
 POSITION                                       TOTAL-FORCE (eV/Angst)
 -----------------------------------------------------------------------------------
      0.09623      3.71438      1.47919        -0.000114     -0.000651      0.000941
      2.43021      1.80613      1.60595         0.000410     -0.000376     -0.001215
      2.42894      1.80712      4.76312         0.002187      0.000503      0.001541
      0.09688      3.71781      4.89194         0.000377     -0.001135     -0.001039
      0.09140      0.59737      3.18200         0.005474     -0.000079      0.001672
      2.59449      4.45023      0.06118         0.000720     -0.000646     -0.001091
      4.09034      2.59408      3.18779        -0.005328      0.000363     -0.001464
      0.09652      3.71813      7.72779        -0.000114     -0.000651      0.000941
      2.43051      1.80989      7.85454         0.000410     -0.000376     -0.001215
      2.42923      1.81087     11.01172         0.002187      0.000503      0.001541
      0.09717      3.72157     11.14053         0.000377     -0.001135     -0.001039
      0.09170      0.60112      9.43059         0.005474     -0.000079      0.001672
      2.59478      4.45399      6.30977         0.000720     -0.000646     -0.001091
      4.09063      2.59784      9.43638        -0.005328      0.000363     -0.001464
      4.91411      0.93828      0.05927         0.002397     -0.003090      0.001203
      2.46266      4.57844      3.18550         0.000924      0.001010     -0.000687
      4.91441      0.94204      6.30787         0.002397     -0.003090      0.001203
      2.46295      4.58220      9.43409         0.000924      0.001010     -0.000687
      0.47677      1.76900      1.51869        -0.001189     -0.001574      0.002212
      3.19555      0.88087      0.06068        -0.003471     -0.000331      0.000515
      0.47602      1.76936      4.84769         0.000041     -0.001027     -0.000963
      3.10416      3.61894      1.75567        -0.001144     -0.001070     -0.000872
      3.10438      3.62073      4.61690        -0.000439     -0.000300     -0.000433
      3.08843      0.83058      3.18539         0.006487      0.003610     -0.000411
      0.60727      4.80992      0.06117        -0.005781      0.001422      0.000325
      0.67561      4.30457      3.18501        -0.001549      0.003372     -0.000234
      0.47706      1.77276      7.76728        -0.001189     -0.001574      0.002212
      3.19584      0.88463      6.30928        -0.003471     -0.000331      0.000515
      0.47632      1.77311     11.09629         0.000041     -0.001027     -0.000963
      3.10445      3.62269      8.00426        -0.001144     -0.001070     -0.000872
      3.10468      3.62449     10.86550        -0.000439     -0.000300     -0.000433
      3.08872      0.83434      9.43398         0.006487      0.003610     -0.000411
      0.60756      4.81368      6.30976        -0.005781      0.001422      0.000325
      0.67590      4.30832      9.43361        -0.001549      0.003372     -0.000234
 -----------------------------------------------------------------------------------
    total drift:                               -0.006776     -0.012510      0.009805


--------------------------------------------------------------------------------------------------------



  FREE ENERGIE OF THE ION-ELECTRON SYSTEM (eV)
  ---------------------------------------------------
  free  energy   TOTEN  =      -211.41549561 eV

  energy  without entropy=     -211.41549561  energy(sigma->0) =     -211.41549561
 


--------------------------------------------------------------------------------------------------------


    POTLOK:  cpu time    0.0186: real time    0.0187


--------------------------------------------------------------------------------------------------------


 stress matrix after NEB project (eV)
     -0.06152     -0.00729     -0.00175
     -0.00729     -0.06702     -0.00509
     -0.00175     -0.00509     -0.01014
  FORCES: max atom, RMS     0.007435    0.003672
  FORCE total and by dimension    0.021410    0.006487
  Stress total and by dimension    0.092432    0.067023
     LOOP+:  cpu time   50.8573: real time   51.7467
    4ORBIT:  cpu time    0.0000: real time    0.0044

 total amount of memory used by VASP on root node    51895. kBytes
========================================================================

   base      :      30000. kBytes
   nonlr-proj:       3106. kBytes
   fftplans  :        763. kBytes
   grid      :       1950. kBytes
   one-center:        155. kBytes
   wavefun   :      15921. kBytes
 
  
  
 General timing and accounting informations for this job:
 ========================================================
  
                  Total CPU time used (sec):       58.994
                            User time (sec):       56.120
                          System time (sec):        2.874
                         Elapsed time (sec):       63.333
  
                   Maximum memory used (kb):      498924.
                   Average memory used (kb):           0.
  
                          Minor page faults:        86238
                          Major page faults:          209
                 Voluntary context switches:         5783
