 running on   64 total cores
 distrk:  each k-point on   64 cores,    1 groups
 distr:  one band on    8 cores,    8 groups
 using from now: INCAR     
 vasp.5.4.1 05Feb16 (build Apr 23 2022 14:15:44) complex                        
  
 POSCAR found type information on POSCAR  Li V  O 
 POSCAR found :  3 types and      34 ions
 scaLAPACK will be used
 LDA part: xc-table for Pade appr. of Perdew
 POSCAR found type information on POSCAR  Li V  O 
 POSCAR found :  3 types and      34 ions
 POSCAR, INCAR and KPOINTS ok, starting setup
 WARNING: small aliasing (wrap around) errors must be expected
 FFT: planning ...
 WAVECAR not read
 entering main loop
       N       E                     dE             d eps       ncg     rms          rms(c)
RMM:   1     0.173175983030E+04    0.17318E+04   -0.46468E+04  5408   0.118E+03
RMM:   2     0.503294284671E+03   -0.12285E+04   -0.11582E+04  5408   0.298E+02
RMM:   3     0.127373180343E+03   -0.37592E+03   -0.33521E+03  5408   0.166E+02
RMM:   4    -0.579980431428E+02   -0.18537E+03   -0.11247E+03  5408   0.217E+02
RMM:   5    -0.156419979973E+03   -0.98422E+02   -0.70891E+02  5408   0.111E+02
RMM:   6    -0.201638836621E+03   -0.45219E+02   -0.29746E+02  5408   0.934E+01
RMM:   7    -0.226848961442E+03   -0.25210E+02   -0.18572E+02  5408   0.543E+01
RMM:   8    -0.238623720834E+03   -0.11775E+02   -0.82915E+01  5408   0.504E+01
RMM:   9    -0.252973414011E+03   -0.14350E+02   -0.12761E+02 18148   0.273E+01
RMM:  10    -0.253437749554E+03   -0.46434E+00   -0.29797E+00 18296   0.410E+00
RMM:  11    -0.253478472210E+03   -0.40723E-01   -0.25045E-01 18261   0.697E-01
RMM:  12    -0.253484222231E+03   -0.57500E-02   -0.47296E-02 16968   0.157E-01    0.899E+01
RMM:  13    -0.201102341569E+03    0.52382E+02   -0.43890E+02 14453   0.728E+01    0.629E+01
RMM:  14    -0.206969689724E+03   -0.58673E+01   -0.65283E+01 13926   0.277E+01    0.456E+01
RMM:  15    -0.201268600750E+03    0.57011E+01   -0.10394E+01 14316   0.103E+01    0.184E+01
RMM:  16    -0.202834980958E+03   -0.15664E+01   -0.71551E+00 14509   0.881E+00    0.962E+00
RMM:  17    -0.203081469478E+03   -0.24649E+00   -0.11933E+00 15378   0.334E+00    0.691E+00
RMM:  18    -0.203446364262E+03   -0.36489E+00   -0.29842E-01 15557   0.179E+00    0.408E+00
RMM:  19    -0.204039136391E+03   -0.59277E+00   -0.58259E-01 14882   0.245E+00    0.235E+00
RMM:  20    -0.204150063983E+03   -0.11093E+00   -0.97430E-02 15492   0.103E+00    0.119E+00
RMM:  21    -0.204142988477E+03    0.70755E-02   -0.27147E-02 14175   0.653E-01    0.729E-01
RMM:  22    -0.204144362652E+03   -0.13742E-02   -0.99013E-03 15590   0.271E-01    0.188E-01
RMM:  23    -0.204144925608E+03   -0.56296E-03   -0.14403E-03 15225   0.126E-01    0.846E-02
RMM:  24    -0.204145019458E+03   -0.93850E-04   -0.24608E-04 15329   0.528E-02    0.553E-02
RMM:  25    -0.204145026153E+03   -0.66951E-05   -0.35182E-05 13702   0.205E-02    0.295E-02
RMM:  26    -0.204145028499E+03   -0.23459E-05   -0.21653E-05 13683   0.170E-02    0.108E-02
RMM:  27    -0.204145028352E+03    0.14710E-06   -0.43625E-06 10596   0.856E-03
   1 F= -.21141550E+03 E0= -.21141550E+03  d E =-.282769E-18  mag=     1.9993
