 vasp.5.4.1 05Feb16 (build Apr 23 2022 14:15:44) complex                        
  
 executed on           IFC91_ompi date 2024.06.25  17:20:43
 running on   64 total cores
 distrk:  each k-point on   64 cores,    1 groups
 distr:  one band on NCORES_PER_BAND=   8 cores,    8 groups


--------------------------------------------------------------------------------------------------------


 INCAR:
 POTCAR:    PAW_PBE Mo 08Apr2002                  
 POTCAR:    PAW_PBE O 08Apr2002                   
 POTCAR:    PAW_PBE Li 17Jan2003                  
 POTCAR:    PAW_PBE Mo 08Apr2002                  
   VRHFIN =Mo: 4p5s4d                                                           
   LEXCH  = PE                                                                  
   EATOM  =   217.5176 eV,   15.9871 Ry                                         
                                                                                
   TITEL  = PAW_PBE Mo 08Apr2002                                                
   LULTRA =        F    use ultrasoft PP ?                                      
   IUNSCR =        1    unscreen: 0-lin 1-nonlin 2-no                           
   RPACOR =    2.200    partial core radius                                     
   POMASS =   95.940; ZVAL   =    6.000    mass and valenz                      
   RCORE  =    2.750    outmost cutoff radius                                   
   RWIGS  =    2.750; RWIGS  =    1.455    wigner-seitz radius (au A)           
   ENMAX  =  224.584; ENMIN  =  168.438 eV                                      
   RCLOC  =    2.111    cutoff for local pot                                    
   LCOR   =        T    correct aug charges                                     
   LPAW   =        T    paw PP                                                  
   EAUG   =  345.278                                                            
   DEXC   =    0.000                                                            
   RMAX   =    2.821    core radius for proj-oper                               
   RAUG   =    1.300    factor for augmentation sphere                          
   RDEP   =    2.815    radius for radial grids                                 
   RDEPT  =    2.211    core radius for aug-charge                              
                                                                                
   Atomic configuration                                                         
   12 entries                                                                   
     n  l   j            E        occ.                                          
     1  0  0.50    -19819.0341   2.0000                                         
     2  0  0.50     -2799.0127   2.0000                                         
     2  1  1.50     -2502.0276   6.0000                                         
     3  0  0.50      -476.4448   2.0000                                         
     3  1  1.50      -379.1496   6.0000                                         
     3  2  2.50      -220.9367  10.0000                                         
     4  0  0.50       -64.3378   2.0000                                         
     4  1  1.50       -38.4773   6.0000                                         
     4  2  2.50        -3.7535   5.0000                                         
     5  0  0.50        -4.0862   1.0000                                         
     5  1  0.50        -2.7701   0.0000                                         
     4  3  2.50        -1.3606   0.0000                                         
   Description                                                                  
     l       E           TYP  RCUT    TYP  RCUT                                 
     2     -3.7534765     23  2.500                                             
     2     -5.1140591     23  2.500                                             
     0     -4.0861560     23  2.600                                             
     0     13.6058260     23  2.600                                             
     1      5.4423304     23  2.750                                             
     1     27.2116520     23  2.750                                             
  local pseudopotential read in
  partial core-charges read in
  partial kinetic energy density read in
  atomic valenz-charges read in
  non local Contribution for L=           2  read in
    real space projection operators read in
  non local Contribution for L=           2  read in
    real space projection operators read in
  non local Contribution for L=           0  read in
    real space projection operators read in
  non local Contribution for L=           0  read in
    real space projection operators read in
  non local Contribution for L=           1  read in
    real space projection operators read in
  non local Contribution for L=           1  read in
    real space projection operators read in
    PAW grid and wavefunctions read in
 
   number of l-projection  operators is LMAX  =           6
   number of lm-projection operators is LMMAX =          18
 
 POTCAR:    PAW_PBE O 08Apr2002                   
   VRHFIN =O: s2p4                                                              
   LEXCH  = PE                                                                  
   EATOM  =   432.3788 eV,   31.7789 Ry                                         
                                                                                
   TITEL  = PAW_PBE O 08Apr2002                                                 
   LULTRA =        F    use ultrasoft PP ?                                      
   IUNSCR =        1    unscreen: 0-lin 1-nonlin 2-no                           
   RPACOR =    1.200    partial core radius                                     
   POMASS =   16.000; ZVAL   =    6.000    mass and valenz                      
   RCORE  =    1.520    outmost cutoff radius                                   
   RWIGS  =    1.550; RWIGS  =    0.820    wigner-seitz radius (au A)           
   ENMAX  =  400.000; ENMIN  =  300.000 eV                                      
   ICORE  =        2    local potential                                         
   LCOR   =        T    correct aug charges                                     
   LPAW   =        T    paw PP                                                  
   EAUG   =  605.392                                                            
   DEXC   =    0.000                                                            
   RMAX   =    1.553    core radius for proj-oper                               
   RAUG   =    1.300    factor for augmentation sphere                          
   RDEP   =    1.550    radius for radial grids                                 
   RDEPT  =    1.329    core radius for aug-charge                              
                                                                                
   Atomic configuration                                                         
    4 entries                                                                   
     n  l   j            E        occ.                                          
     1  0  0.50      -514.6923   2.0000                                         
     2  0  0.50       -23.9615   2.0000                                         
     2  1  0.50        -9.0305   4.0000                                         
     3  2  1.50        -9.5241   0.0000                                         
   Description                                                                  
     l       E           TYP  RCUT    TYP  RCUT                                 
     0    -23.9615318     23  1.200                                             
     0     -9.5240782     23  1.200                                             
     1     -9.0304911     23  1.520                                             
     1      8.1634956     23  1.520                                             
     2     -9.5240782      7  1.500                                             
  local pseudopotential read in
  partial core-charges read in
  partial kinetic energy density read in
  kinetic energy density of atom read in
  atomic valenz-charges read in
  non local Contribution for L=           0  read in
    real space projection operators read in
  non local Contribution for L=           0  read in
    real space projection operators read in
  non local Contribution for L=           1  read in
    real space projection operators read in
  non local Contribution for L=           1  read in
    real space projection operators read in
    PAW grid and wavefunctions read in
 
   number of l-projection  operators is LMAX  =           4
   number of lm-projection operators is LMMAX =           8
 
 POTCAR:    PAW_PBE Li 17Jan2003                  
   VRHFIN =Li: s1p0                                                             
   LEXCH  = PE                                                                  
   EATOM  =     5.3001 eV,    0.3895 Ry                                         
                                                                                
   TITEL  = PAW_PBE Li 17Jan2003                                                
   LULTRA =        F    use ultrasoft PP ?                                      
   IUNSCR =        1    unscreen: 0-lin 1-nonlin 2-no                           
   RPACOR =    1.500    partial core radius                                     
   POMASS =    7.010; ZVAL   =    1.000    mass and valenz                      
   RCORE  =    2.050    outmost cutoff radius                                   
   RWIGS  =    2.600; RWIGS  =    1.376    wigner-seitz radius (au A)           
   ENMAX  =  140.000; ENMIN  =  100.000 eV                                      
   ICORE  =        2    local potential                                         
   LCOR   =        T    correct aug charges                                     
   LPAW   =        T    paw PP                                                  
   EAUG   =  331.638                                                            
   DEXC   =    0.000                                                            
   RMAX   =    2.098    core radius for proj-oper                               
   RAUG   =    1.300    factor for augmentation sphere                          
   RDEP   =    2.094    radius for radial grids                                 
   RDEPT  =    1.810    core radius for aug-charge                              
                                                                                
   Atomic configuration                                                         
    4 entries                                                                   
     n  l   j            E        occ.                                          
     1  0  0.50       -51.8549   2.0000                                         
     2  0  0.50        -2.8742   1.0000                                         
     2  1  0.50        -1.3606   0.0000                                         
     3  2  1.50        -1.3606   0.0000                                         
   Description                                                                  
     l       E           TYP  RCUT    TYP  RCUT                                 
     0     -2.8742052     23  2.050                                             
     0     27.2116520     23  2.050                                             
     1     -1.3605826     23  2.050                                             
     2     -1.3605826     23  2.050                                             
  local pseudopotential read in
  partial core-charges read in
  partial kinetic energy density read in
  atomic valenz-charges read in
  non local Contribution for L=           0  read in
    real space projection operators read in
  non local Contribution for L=           0  read in
    real space projection operators read in
  non local Contribution for L=           1  read in
    real space projection operators read in
    PAW grid and wavefunctions read in
 
   number of l-projection  operators is LMAX  =           3
   number of lm-projection operators is LMMAX =           5
 
 Optimization of the real space projectors (new method)

 maximal supplied QI-value         = 13.61
 optimisation between [QCUT,QGAM] = [ 10.20, 25.58] = [ 29.16,183.22] Ry 
 Optimized for a Real-space Cutoff    1.48 Angstroem

   l    n(q)    QCUT    max X(q) W(low)/X(q) W(high)/X(q)  e(spline) 
   2     10    10.205    80.908    0.12E-03    0.36E-04    0.44E-05
   2     10    10.205    79.000    0.12E-03    0.36E-04    0.44E-05
   0     11    10.205    52.066    0.66E-04    0.89E-05    0.24E-05
   0     11    10.205    24.514    0.55E-04    0.80E-05    0.19E-05
   1     11    10.205    16.033    0.32E-03    0.35E-03    0.56E-05
   1     11    10.205    11.179    0.25E-03    0.27E-03    0.43E-05
 Optimization of the real space projectors (new method)

 maximal supplied QI-value         = 24.76
 optimisation between [QCUT,QGAM] = [ 10.15, 25.50] = [ 28.85,182.06] Ry 
 Optimized for a Real-space Cutoff    1.04 Angstroem

   l    n(q)    QCUT    max X(q) W(low)/X(q) W(high)/X(q)  e(spline) 
   0      8    10.150    20.381    0.10E-03    0.88E-04    0.13E-06
   0      8    10.150    15.268    0.11E-03    0.93E-04    0.15E-06
   1      7    10.150     5.964    0.15E-03    0.39E-04    0.12E-06
   1      7    10.150     5.382    0.13E-03    0.41E-04    0.10E-06
 Optimization of the real space projectors (new method)

 maximal supplied QI-value         = 18.33
 optimisation between [QCUT,QGAM] = [ 10.08, 25.48] = [ 28.46,181.79] Ry 
 Optimized for a Real-space Cutoff    1.14 Angstroem

   l    n(q)    QCUT    max X(q) W(low)/X(q) W(high)/X(q)  e(spline) 
   0      9    10.082    33.825    0.18E-03    0.84E-04    0.78E-07
   0      9    10.082     8.944    0.13E-03    0.65E-04    0.58E-07
   1      8    10.082     4.214    0.33E-04    0.12E-03    0.12E-06
  PAW_PBE Mo 08Apr2002                  :
 energy of atom  1       EATOM= -217.5176
 kinetic energy error for atom=    0.0025 (will be added to EATOM!!)
  PAW_PBE O 08Apr2002                   :
 energy of atom  2       EATOM= -432.3788
 kinetic energy error for atom=    0.1156 (will be added to EATOM!!)
  PAW_PBE Li 17Jan2003                  :
 energy of atom  3       EATOM=   -5.3001
 kinetic energy error for atom=    0.0000 (will be added to EATOM!!)
 
 
 POSCAR: Mo  O Li                                
  positions in cartesian coordinates
  No initial velocities read in
 exchange correlation table for  LEXCH =        8
   RHO(1)=    0.500       N(1)  =     2000
   RHO(2)=  100.500       N(2)  =     4000

 VTST: version 3.1, (03/28/14)

 CHAIN: initializing optimizer
 
 OPT: Using VASP Dynamics algorithm
 CHAIN: Read ICHAIN            0
 
 POSCAR: Mo  O Li                                
  positions in cartesian coordinates
  No initial velocities read in
 


--------------------------------------------------------------------------------------------------------


 ion  position               nearest neighbor table
   1  0.244  0.498  0.503-   9 1.94   5 2.01   7 2.04  10 2.08   8 2.09  12 2.12   3 2.45  13 2.52
                             3 3.06
   2  0.735  0.005  0.986-  11 2.00   7 2.00   9 2.01  10 2.04   6 2.10   8 2.10   4 2.45  13 2.91
                            13 2.94   4 3.07
   3  0.795  0.502  0.496-  11 1.94   7 2.01   5 2.04  12 2.08   6 2.09  10 2.12   1 2.45  13 2.53
                             1 3.06
   4  0.304  0.995  0.013-   9 2.00   5 2.00  11 2.01  12 2.04   8 2.10   6 2.10   2 2.45  13 2.89
                            13 2.93   2 3.07
   5  0.144  0.299  0.752-   4 2.00   1 2.01   3 2.04  13 2.09
   6  0.918  0.809  0.783-  13 1.88   3 2.09   2 2.10   4 2.10
   7  0.895  0.702  0.248-   2 2.00   3 2.01   1 2.04  13 2.10
   8  0.121  0.191  0.216-  13 1.88   1 2.09   4 2.10   2 2.10
   9  0.392  0.793  0.758-   1 1.94   4 2.00   2 2.01
  10  0.628  0.314  0.721-   2 2.04   1 2.08   3 2.12  13 2.19
  11  0.648  0.207  0.241-   3 1.94   2 2.00   4 2.01
  12  0.411  0.686  0.278-   4 2.04   3 2.08   1 2.12  13 2.17
  13  0.022  0.500  1.000-   6 1.88   8 1.88   5 2.09   7 2.10  12 2.17  10 2.19   1 2.52   3 2.53
                             4 2.89   2 2.91   4 2.93   2 2.94
 
  LATTYP: Found a triclinic cell.
 ALAT       =    11.4572300599
 B/A-ratio  =     0.4333088983
 C/A-ratio  =     0.8457978128
 COS(alpha) =     0.0004928179
 COS(beta)  =     0.4341458095
 COS(gamma) =     0.8660871702
  
  Lattice vectors:
  
 A1 = (  -2.7404065022,  -9.9246235802,  -5.0259466410)
 A2 = (  -0.0051254671,  -4.9645151133,   0.0044288318)
 A3 = (  -8.2434941994,  -0.0008094035,  -5.0941726914)


Analysis of symmetry for initial positions (statically):
=====================================================================
 Subroutine PRICEL returns:
 Original cell was already a primitive cell.
 

 Routine SETGRP: Setting up the symmetry group for a 
 triclinic supercell.


 Subroutine GETGRP returns: Found  1 space group operations
 (whereof  1 operations were pure point group operations)
 out of a pool of  2 trial point group operations.


The static configuration has the point symmetry C_1 .


Analysis of symmetry for dynamics (positions and initial velocities):
=====================================================================
 Subroutine PRICEL returns:
 Original cell was already a primitive cell.
 

 Routine SETGRP: Setting up the symmetry group for a 
 triclinic supercell.


 Subroutine GETGRP returns: Found  1 space group operations
 (whereof  1 operations were pure point group operations)
 out of a pool of  2 trial point group operations.


The dynamic configuration has the point symmetry C_1 .


Analysis of structural, dynamic, and magnetic symmetry:
=====================================================================
 Subroutine PRICEL returns:
 Original cell was already a primitive cell.
 

 Routine SETGRP: Setting up the symmetry group for a 
 triclinic supercell.


 Subroutine GETGRP returns: Found  1 space group operations
 (whereof  1 operations were pure point group operations)
 out of a pool of  2 trial point group operations.


The magnetic configuration has the point symmetry C_1 .


 Subroutine INISYM returns: Found  1 space group operations
 (whereof  1 operations are pure point group operations),
 and found     1 'primitive' translations

 
 
 KPOINTS: KPOINTS created by Atomic Simulation Env

Automatic generation of k-mesh.
Space group operators:
 irot       det(A)        alpha          n_x          n_y          n_z        tau_x        tau_y        tau_z
    1     1.000000     0.000000     1.000000     0.000000     0.000000     0.000000     0.000000     0.000000
 
 Subroutine IBZKPT returns following result:
 ===========================================
 
 Found    172 irreducible k-points:
 
 Following reciprocal coordinates:
            Coordinates               Weight
  0.000000  0.000000  0.000000      1.000000
  0.142857 -0.000000  0.000000      2.000000
  0.285714  0.000000  0.000000      2.000000
  0.428571  0.000000 -0.000000      2.000000
 -0.000000  0.142857  0.000000      2.000000
  0.142857  0.142857  0.000000      2.000000
  0.285714  0.142857 -0.000000      2.000000
  0.428571  0.142857 -0.000000      2.000000
 -0.428571  0.142857  0.000000      2.000000
 -0.285714  0.142857  0.000000      2.000000
 -0.142857  0.142857  0.000000      2.000000
 -0.000000  0.285714 -0.000000      2.000000
  0.142857  0.285714  0.000000      2.000000
  0.285714  0.285714 -0.000000      2.000000
  0.428571  0.285714 -0.000000      2.000000
 -0.428571  0.285714  0.000000      2.000000
 -0.285714  0.285714  0.000000      2.000000
 -0.142857  0.285714  0.000000      2.000000
 -0.000000  0.428571  0.000000      2.000000
  0.142857  0.428571  0.000000      2.000000
  0.285714  0.428571 -0.000000      2.000000
  0.428571  0.428571  0.000000      2.000000
 -0.428571  0.428571  0.000000      2.000000
 -0.285714  0.428571  0.000000      2.000000
 -0.142857  0.428571  0.000000      2.000000
  0.000000  0.000000  0.142857      2.000000
  0.142857  0.000000  0.142857      2.000000
  0.285714  0.000000  0.142857      2.000000
  0.428571  0.000000  0.142857      2.000000
 -0.428571  0.000000  0.142857      2.000000
 -0.285714  0.000000  0.142857      2.000000
 -0.142857  0.000000  0.142857      2.000000
  0.000000  0.142857  0.142857      2.000000
  0.142857  0.142857  0.142857      2.000000
  0.285714  0.142857  0.142857      2.000000
  0.428571  0.142857  0.142857      2.000000
 -0.428571  0.142857  0.142857      2.000000
 -0.285714  0.142857  0.142857      2.000000
 -0.142857  0.142857  0.142857      2.000000
 -0.000000  0.285714  0.142857      2.000000
  0.142857  0.285714  0.142857      2.000000
  0.285714  0.285714  0.142857      2.000000
  0.428571  0.285714  0.142857      2.000000
 -0.428571  0.285714  0.142857      2.000000
 -0.285714  0.285714  0.142857      2.000000
 -0.142857  0.285714  0.142857      2.000000
 -0.000000  0.428571  0.142857      2.000000
  0.142857  0.428571  0.142857      2.000000
  0.285714  0.428571  0.142857      2.000000
  0.428571  0.428571  0.142857      2.000000
 -0.428571  0.428571  0.142857      2.000000
 -0.285714  0.428571  0.142857      2.000000
 -0.142857  0.428571  0.142857      2.000000
  0.000000 -0.428571  0.142857      2.000000
  0.142857 -0.428571  0.142857      2.000000
  0.285714 -0.428571  0.142857      2.000000
  0.428571 -0.428571  0.142857      2.000000
 -0.428571 -0.428571  0.142857      2.000000
 -0.285714 -0.428571  0.142857      2.000000
 -0.142857 -0.428571  0.142857      2.000000
  0.000000 -0.285714  0.142857      2.000000
  0.142857 -0.285714  0.142857      2.000000
  0.285714 -0.285714  0.142857      2.000000
  0.428571 -0.285714  0.142857      2.000000
 -0.428571 -0.285714  0.142857      2.000000
 -0.285714 -0.285714  0.142857      2.000000
 -0.142857 -0.285714  0.142857      2.000000
  0.000000 -0.142857  0.142857      2.000000
  0.142857 -0.142857  0.142857      2.000000
  0.285714 -0.142857  0.142857      2.000000
  0.428571 -0.142857  0.142857      2.000000
 -0.428571 -0.142857  0.142857      2.000000
 -0.285714 -0.142857  0.142857      2.000000
 -0.142857 -0.142857  0.142857      2.000000
 -0.000000  0.000000  0.285714      2.000000
  0.142857 -0.000000  0.285714      2.000000
  0.285714 -0.000000  0.285714      2.000000
  0.428571  0.000000  0.285714      2.000000
 -0.428571 -0.000000  0.285714      2.000000
 -0.285714 -0.000000  0.285714      2.000000
 -0.142857 -0.000000  0.285714      2.000000
  0.000000  0.142857  0.285714      2.000000
  0.142857  0.142857  0.285714      2.000000
  0.285714  0.142857  0.285714      2.000000
  0.428571  0.142857  0.285714      2.000000
 -0.428571  0.142857  0.285714      2.000000
 -0.285714  0.142857  0.285714      2.000000
 -0.142857  0.142857  0.285714      2.000000
  0.000000  0.285714  0.285714      2.000000
  0.142857  0.285714  0.285714      2.000000
  0.285714  0.285714  0.285714      2.000000
  0.428571  0.285714  0.285714      2.000000
 -0.428571  0.285714  0.285714      2.000000
 -0.285714  0.285714  0.285714      2.000000
 -0.142857  0.285714  0.285714      2.000000
 -0.000000  0.428571  0.285714      2.000000
  0.142857  0.428571  0.285714      2.000000
  0.285714  0.428571  0.285714      2.000000
  0.428571  0.428571  0.285714      2.000000
 -0.428571  0.428571  0.285714      2.000000
 -0.285714  0.428571  0.285714      2.000000
 -0.142857  0.428571  0.285714      2.000000
  0.000000 -0.428571  0.285714      2.000000
  0.142857 -0.428571  0.285714      2.000000
  0.285714 -0.428571  0.285714      2.000000
  0.428571 -0.428571  0.285714      2.000000
 -0.428571 -0.428571  0.285714      2.000000
 -0.285714 -0.428571  0.285714      2.000000
 -0.142857 -0.428571  0.285714      2.000000
 -0.000000 -0.285714  0.285714      2.000000
  0.142857 -0.285714  0.285714      2.000000
  0.285714 -0.285714  0.285714      2.000000
  0.428571 -0.285714  0.285714      2.000000
 -0.428571 -0.285714  0.285714      2.000000
 -0.285714 -0.285714  0.285714      2.000000
 -0.142857 -0.285714  0.285714      2.000000
  0.000000 -0.142857  0.285714      2.000000
  0.142857 -0.142857  0.285714      2.000000
  0.285714 -0.142857  0.285714      2.000000
  0.428571 -0.142857  0.285714      2.000000
 -0.428571 -0.142857  0.285714      2.000000
 -0.285714 -0.142857  0.285714      2.000000
 -0.142857 -0.142857  0.285714      2.000000
 -0.000000  0.000000  0.428571      2.000000
  0.142857 -0.000000  0.428571      2.000000
  0.285714  0.000000  0.428571      2.000000
  0.428571 -0.000000  0.428571      2.000000
 -0.428571  0.000000  0.428571      2.000000
 -0.285714  0.000000  0.428571      2.000000
 -0.142857  0.000000  0.428571      2.000000
  0.000000  0.142857  0.428571      2.000000
  0.142857  0.142857  0.428571      2.000000
  0.285714  0.142857  0.428571      2.000000
  0.428571  0.142857  0.428571      2.000000
 -0.428571  0.142857  0.428571      2.000000
 -0.285714  0.142857  0.428571      2.000000
 -0.142857  0.142857  0.428571      2.000000
  0.000000  0.285714  0.428571      2.000000
  0.142857  0.285714  0.428571      2.000000
  0.285714  0.285714  0.428571      2.000000
  0.428571  0.285714  0.428571      2.000000
 -0.428571  0.285714  0.428571      2.000000
 -0.285714  0.285714  0.428571      2.000000
 -0.142857  0.285714  0.428571      2.000000
  0.000000  0.428571  0.428571      2.000000
  0.142857  0.428571  0.428571      2.000000
  0.285714  0.428571  0.428571      2.000000
  0.428571  0.428571  0.428571      2.000000
 -0.428571  0.428571  0.428571      2.000000
 -0.285714  0.428571  0.428571      2.000000
 -0.142857  0.428571  0.428571      2.000000
  0.000000 -0.428571  0.428571      2.000000
  0.142857 -0.428571  0.428571      2.000000
  0.285714 -0.428571  0.428571      2.000000
  0.428571 -0.428571  0.428571      2.000000
 -0.428571 -0.428571  0.428571      2.000000
 -0.285714 -0.428571  0.428571      2.000000
 -0.142857 -0.428571  0.428571      2.000000
 -0.000000 -0.285714  0.428571      2.000000
  0.142857 -0.285714  0.428571      2.000000
  0.285714 -0.285714  0.428571      2.000000
  0.428571 -0.285714  0.428571      2.000000
 -0.428571 -0.285714  0.428571      2.000000
 -0.285714 -0.285714  0.428571      2.000000
 -0.142857 -0.285714  0.428571      2.000000
  0.000000 -0.142857  0.428571      2.000000
  0.142857 -0.142857  0.428571      2.000000
  0.285714 -0.142857  0.428571      2.000000
  0.428571 -0.142857  0.428571      2.000000
 -0.428571 -0.142857  0.428571      2.000000
 -0.285714 -0.142857  0.428571      2.000000
 -0.142857 -0.142857  0.428571      2.000000
 
 Following cartesian coordinates:
            Coordinates               Weight
  0.000000  0.000000  0.000000      1.000000
  0.025756 -0.000014  0.014408      2.000000
  0.051512 -0.000027  0.028815      2.000000
  0.077268 -0.000041  0.043223      2.000000
 -0.000028  0.028776  0.000040      2.000000
  0.025728  0.028762  0.014448      2.000000
  0.051484  0.028748  0.028855      2.000000
  0.077241  0.028734  0.043263      2.000000
 -0.077296  0.028817 -0.043182      2.000000
 -0.051540  0.028803 -0.028775      2.000000
 -0.025784  0.028789 -0.014367      2.000000
 -0.000055  0.057551  0.000080      2.000000
  0.025701  0.057538  0.014488      2.000000
  0.051457  0.057524  0.028895      2.000000
  0.077213  0.057510  0.043303      2.000000
 -0.077323  0.057593 -0.043142      2.000000
 -0.051567  0.057579 -0.028735      2.000000
 -0.025811  0.057565 -0.014327      2.000000
 -0.000083  0.086327  0.000121      2.000000
  0.025673  0.086313  0.014528      2.000000
  0.051429  0.086300  0.028936      2.000000
  0.077185  0.086286  0.043343      2.000000
 -0.077351  0.086368 -0.043102      2.000000
 -0.051595  0.086355 -0.028694      2.000000
 -0.025839  0.086341 -0.014287      2.000000
 -0.000307  0.000026  0.028541      2.000000
  0.025449  0.000012  0.042948      2.000000
  0.051205 -0.000002  0.057356      2.000000
  0.076961 -0.000015  0.071763      2.000000
 -0.077576  0.000067 -0.014682      2.000000
 -0.051819  0.000053 -0.000274      2.000000
 -0.026063  0.000040  0.014133      2.000000
 -0.000335  0.028801  0.028581      2.000000
  0.025421  0.028788  0.042988      2.000000
  0.051177  0.028774  0.057396      2.000000
  0.076933  0.028760  0.071803      2.000000
 -0.077603  0.028843 -0.014642      2.000000
 -0.051847  0.028829 -0.000234      2.000000
 -0.026091  0.028815  0.014173      2.000000
 -0.000363  0.057577  0.028621      2.000000
  0.025393  0.057563  0.043028      2.000000
  0.051149  0.057550  0.057436      2.000000
  0.076906  0.057536  0.071844      2.000000
 -0.077631  0.057618 -0.014602      2.000000
 -0.051875  0.057605 -0.000194      2.000000
 -0.026119  0.057591  0.014213      2.000000
 -0.000390  0.086353  0.028661      2.000000
  0.025366  0.086339  0.043069      2.000000
  0.051122  0.086325  0.057476      2.000000
  0.076878  0.086312  0.071884      2.000000
 -0.077658  0.086394 -0.014561      2.000000
 -0.051902  0.086380 -0.000154      2.000000
 -0.026146  0.086367  0.014254      2.000000
 -0.000224 -0.086301  0.028420      2.000000
  0.025532 -0.086315  0.042828      2.000000
  0.051288 -0.086329  0.057235      2.000000
  0.077044 -0.086343  0.071643      2.000000
 -0.077493 -0.086260 -0.014802      2.000000
 -0.051736 -0.086274 -0.000395      2.000000
 -0.025980 -0.086288  0.014013      2.000000
 -0.000252 -0.057526  0.028460      2.000000
  0.025504 -0.057539  0.042868      2.000000
  0.051260 -0.057553  0.057275      2.000000
  0.077016 -0.057567  0.071683      2.000000
 -0.077520 -0.057484 -0.014762      2.000000
 -0.051764 -0.057498 -0.000355      2.000000
 -0.026008 -0.057512  0.014053      2.000000
 -0.000280 -0.028750  0.028500      2.000000
  0.025476 -0.028764  0.042908      2.000000
  0.051232 -0.028777  0.057315      2.000000
  0.076988 -0.028791  0.071723      2.000000
 -0.077548 -0.028709 -0.014722      2.000000
 -0.051792 -0.028722 -0.000315      2.000000
 -0.026036 -0.028736  0.014093      2.000000
 -0.000615  0.000052  0.057081      2.000000
  0.025141  0.000038  0.071489      2.000000
  0.050897  0.000024  0.085896      2.000000
  0.076653  0.000010  0.100304      2.000000
 -0.077883  0.000093  0.013859      2.000000
 -0.052127  0.000079  0.028266      2.000000
 -0.026371  0.000065  0.042674      2.000000
 -0.000642  0.028827  0.057121      2.000000
  0.025114  0.028814  0.071529      2.000000
  0.050870  0.028800  0.085936      2.000000
  0.076626  0.028786  0.100344      2.000000
 -0.077911  0.028868  0.013899      2.000000
 -0.052154  0.028855  0.028306      2.000000
 -0.026398  0.028841  0.042714      2.000000
 -0.000670  0.057603  0.057162      2.000000
  0.025086  0.057589  0.071569      2.000000
  0.050842  0.057576  0.085977      2.000000
  0.076598  0.057562  0.100384      2.000000
 -0.077938  0.057644  0.013939      2.000000
 -0.052182  0.057630  0.028347      2.000000
 -0.026426  0.057617  0.042754      2.000000
 -0.000698  0.086379  0.057202      2.000000
  0.025058  0.086365  0.071609      2.000000
  0.050814  0.086351  0.086017      2.000000
  0.076570  0.086337  0.100424      2.000000
 -0.077966  0.086420  0.013979      2.000000
 -0.052210  0.086406  0.028387      2.000000
 -0.026454  0.086392  0.042794      2.000000
 -0.000532 -0.086276  0.056961      2.000000
  0.025224 -0.086289  0.071368      2.000000
  0.050980 -0.086303  0.085776      2.000000
  0.076736 -0.086317  0.100183      2.000000
 -0.077800 -0.086234  0.013738      2.000000
 -0.052044 -0.086248  0.028146      2.000000
 -0.026288 -0.086262  0.042553      2.000000
 -0.000559 -0.057500  0.057001      2.000000
  0.025197 -0.057514  0.071408      2.000000
  0.050953 -0.057527  0.085816      2.000000
  0.076709 -0.057541  0.100223      2.000000
 -0.077828 -0.057459  0.013778      2.000000
 -0.052072 -0.057472  0.028186      2.000000
 -0.026315 -0.057486  0.042593      2.000000
 -0.000587 -0.028724  0.057041      2.000000
  0.025169 -0.028738  0.071449      2.000000
  0.050925 -0.028752  0.085856      2.000000
  0.076681 -0.028765  0.100264      2.000000
 -0.077855 -0.028683  0.013818      2.000000
 -0.052099 -0.028697  0.028226      2.000000
 -0.026343 -0.028710  0.042634      2.000000
 -0.000922  0.000077  0.085622      2.000000
  0.024834  0.000064  0.100029      2.000000
  0.050590  0.000050  0.114437      2.000000
  0.076346  0.000036  0.128844      2.000000
 -0.078190  0.000119  0.042399      2.000000
 -0.052434  0.000105  0.056807      2.000000
 -0.026678  0.000091  0.071214      2.000000
 -0.000950  0.028853  0.085662      2.000000
  0.024806  0.028839  0.100070      2.000000
  0.050562  0.028826  0.114477      2.000000
  0.076318  0.028812  0.128885      2.000000
 -0.078218  0.028894  0.042439      2.000000
 -0.052462  0.028881  0.056847      2.000000
 -0.026706  0.028867  0.071254      2.000000
 -0.000977  0.057629  0.085702      2.000000
  0.024779  0.057615  0.100110      2.000000
  0.050535  0.057601  0.114517      2.000000
  0.076291  0.057588  0.128925      2.000000
 -0.078246  0.057670  0.042480      2.000000
 -0.052489  0.057656  0.056887      2.000000
 -0.026733  0.057642  0.071295      2.000000
 -0.001005  0.086404  0.085742      2.000000
  0.024751  0.086391  0.100150      2.000000
  0.050507  0.086377  0.114557      2.000000
  0.076263  0.086363  0.128965      2.000000
 -0.078273  0.086446  0.042520      2.000000
 -0.052517  0.086432  0.056927      2.000000
 -0.026761  0.086418  0.071335      2.000000
 -0.000839 -0.086250  0.085501      2.000000
  0.024917 -0.086264  0.099909      2.000000
  0.050673 -0.086277  0.114316      2.000000
  0.076429 -0.086291  0.128724      2.000000
 -0.078107 -0.086209  0.042279      2.000000
 -0.052351 -0.086222  0.056686      2.000000
 -0.026595 -0.086236  0.071094      2.000000
 -0.000867 -0.057474  0.085541      2.000000
  0.024889 -0.057488  0.099949      2.000000
  0.050645 -0.057502  0.114356      2.000000
  0.076401 -0.057515  0.128764      2.000000
 -0.078135 -0.057433  0.042319      2.000000
 -0.052379 -0.057447  0.056726      2.000000
 -0.026623 -0.057460  0.071134      2.000000
 -0.000894 -0.028698  0.085582      2.000000
  0.024862 -0.028712  0.099989      2.000000
  0.050618 -0.028726  0.114397      2.000000
  0.076374 -0.028740  0.128804      2.000000
 -0.078163 -0.028657  0.042359      2.000000
 -0.052407 -0.028671  0.056767      2.000000
 -0.026650 -0.028685  0.071174      2.000000
 


--------------------------------------------------------------------------------------------------------




 Dimension of arrays:
   k-points           NKPTS =    172   k-points in BZ     NKDIM =    172   number of bands    NBANDS=     56
   number of dos      NEDOS =    301   number of ions     NIONS =     13
   non local maximal  LDIM  =      6   non local SUM 2l+1 LMDIM =     18
   total plane-waves  NPLWV =  46080
   max r-space proj   IRMAX =   4656   max aug-charges    IRDMAX=  11586
   dimension x,y,z NGX =    36 NGY =   32 NGZ =   40
   dimension x,y,z NGXF=    60 NGYF=   54 NGZF=   60
   support grid    NGXF=    60 NGYF=   54 NGZF=   60
   ions per type =               4   8   1
 NGX,Y,Z   is equivalent  to a cutoff of  10.85, 10.72, 11.66 a.u.
 NGXF,Y,Z  is equivalent  to a cutoff of  18.09, 18.08, 17.50 a.u.


 I would recommend the setting:
   dimension x,y,z NGX =    36 NGY =   32 NGZ =   37
 SYSTEM =  unknown system                          
 POSCAR =  Mo  O Li                                

 Startparameter for this run:
   NWRITE =      2    write-flag & timer
   PREC   = high      normal or accurate (medium, high low for compatibility)
   ISTART =      0    job   : 0-new  1-cont  2-samecut
   ICHARG =      2    charge: 1-file 2-atom 10-const
   ISPIN  =      2    spin polarized calculation?
   LNONCOLLINEAR =      F non collinear calculations
   LSORBIT =      F    spin-orbit coupling
   INIWAV =      1    electr: 0-lowe 1-rand  2-diag
   LASPH  =      F    aspherical Exc in radial PAW
   METAGGA=      F    non-selfconsistent MetaGGA calc.

 Electronic Relaxation 1
   ENCUT  =  400.0 eV  29.40 Ry    5.42 a.u.   8.99  8.10  9.30*2*pi/ulx,y,z
   ENINI  =  400.0     initial cutoff
   ENAUG  =  605.4 eV  augmentation charge cutoff
   NELM   =     60;   NELMIN=  2; NELMDL=-12     # of ELM steps 
   EDIFF  = 0.1E-05   stopping-criterion for ELM
   LREAL  =      T    real-space projection
   NLSPLINE    = F    spline interpolate recip. space projectors
   LCOMPAT=      F    compatible to vasp.4.4
   GGA_COMPAT  = T    GGA compatible to vasp.4.4-vasp.4.6
   LMAXPAW     = -100 max onsite density
   LMAXMIX     =    2 max onsite mixed and CHGCAR
   VOSKOWN=      0    Vosko Wilk Nusair interpolation
   ROPT   =   -0.00040  -0.00040  -0.00040
 Ionic relaxation
   EDIFFG = 0.1E-04   stopping-criterion for IOM
   NSW    =      0    number of steps for IOM
   NBLOCK =      1;   KBLOCK =      1    inner block; outer block 
   IBRION =     -1    ionic relax: 0-MD 1-quasi-New 2-CG
   NFREE  =      0    steps in history (QN), initial steepest desc. (CG)
   ISIF   =      2    stress and relaxation
   IWAVPR =     10    prediction:  0-non 1-charg 2-wave 3-comb
   ISYM   =      2    0-nonsym 1-usesym 2-fastsym
   LCORR  =      T    Harris-Foulkes like correction to forces

   POTIM  = 0.5000    time-step for ionic-motion
   TEIN   =    0.0    initial temperature
   TEBEG  =    0.0;   TEEND  =   0.0 temperature during run
   SMASS  =  -3.00    Nose mass-parameter (am)
   estimated Nose-frequenzy (Omega)   =  0.10E-29 period in steps =****** mass=  -0.695E-27a.u.
   SCALEE = 1.0000    scale energy and forces
   NPACO  =    256;   APACO  = 16.0  distance and # of slots for P.C.
   PSTRESS=    0.0 pullay stress

  Mass of Ions in am
   POMASS =  95.94 16.00  7.01
  Ionic Valenz
   ZVAL   =   6.00  6.00  1.00
  Atomic Wigner-Seitz radii
   RWIGS  =  -1.00 -1.00 -1.00
  virtual crystal weights 
   VCA    =   1.00  1.00  1.00
   NELECT =      73.0000    total number of electrons
   NUPDOWN=      -1.0000    fix difference up-down

 DOS related values:
   EMIN   =  10.00;   EMAX   =-10.00  energy-range for DOS
   EFERMI =   0.00
   ISMEAR =     0;   SIGMA  =   0.03  broadening in eV -4-tet -1-fermi 0-gaus

 Electronic relaxation 2 (details)
   IALGO  =     48    algorithm
   LDIAG  =      T    sub-space diagonalisation (order eigenvalues)
   LSUBROT=      F    optimize rotation matrix (better conditioning)
   TURBO    =      0    0=normal 1=particle mesh
   IRESTART =      0    0=no restart 2=restart with 2 vectors
   NREBOOT  =      0    no. of reboots
   NMIN     =      0    reboot dimension
   EREF     =   0.00    reference energy to select bands
   IMIX   =      4    mixing-type and parameters
     AMIX     =   0.40;   BMIX     =  1.00
     AMIX_MAG =   1.60;   BMIX_MAG =  1.00
     AMIN     =   0.10
     WC   =   100.;   INIMIX=   1;  MIXPRE=   1;  MAXMIX= -45

 Intra band minimization:
   WEIMIN = 0.0000     energy-eigenvalue tresh-hold
   EBREAK =  0.45E-08  absolut break condition
   DEPER  =   0.30     relativ break condition  

   TIME   =   0.40     timestep for ELM

  volume/ion in A,a.u.               =      10.54        71.12
  Fermi-wavevector in a.u.,A,eV,Ry     =   1.327209  2.508061 23.966426  1.761483
  Thomas-Fermi vector in A             =   2.456538
 
 Write flags
   LWAVE  =      F    write WAVECAR
   LCHARG =      T    write CHGCAR
   LVTOT  =      F    write LOCPOT, total local potential
   LVHAR  =      F    write LOCPOT, Hartree potential only
   LELF   =      F    write electronic localiz. function (ELF)
   LORBIT =     12    0 simple, 1 ext, 2 COOP (PROOUT)


 Dipole corrections
   LMONO  =      F    monopole corrections only (constant potential shift)
   LDIPOL =      F    correct potential (dipole corrections)
   IDIPOL =      0    1-x, 2-y, 3-z, 4-all directions 
   EPSILON=  1.0000000 bulk dielectric constant

 Exchange correlation treatment:
   GGA     =    PE    GGA type
   LEXCH   =     8    internal setting for exchange type
   VOSKOWN=      0    Vosko Wilk Nusair interpolation
   LHFCALC =     F    Hartree Fock is set to
   LHFONE  =     F    Hartree Fock one center treatment
   AEXX    =    0.0000 exact exchange contribution

 Linear response parameters
   LEPSILON=     F    determine dielectric tensor
   LRPA    =     F    only Hartree local field effects (RPA)
   LNABLA  =     F    use nabla operator in PAW spheres
   LVEL    =     F    velocity operator in full k-point grid
   LINTERFAST=   F  fast interpolation
   KINTER  =     0    interpolate to denser k-point grid
   CSHIFT  =0.1000    complex shift for real part using Kramers Kronig
   OMEGAMAX=  -1.0    maximum frequency
   DEG_THRESHOLD= 0.2000000E-02 threshold for treating states as degnerate
   RTIME   =    0.100 relaxation time in fs

 Orbital magnetization related:
   ORBITALMAG=     F  switch on orbital magnetization
   LCHIMAG   =     F  perturbation theory with respect to B field
   DQ        =  0.001000  dq finite difference perturbation B field



--------------------------------------------------------------------------------------------------------


 Static calculation
 charge density and potential will be updated during run
 spin polarized calculation
 RMM-DIIS sequential band-by-band
 perform sub-space diagonalisation
    before iterative eigenvector-optimisation
 modified Broyden-mixing scheme, WC =      100.0
 initial mixing is a Kerker type mixing with AMIX =  0.4000 and BMIX =      1.0000
 Hartree-type preconditioning will be used
 using additional bands           19
 real space projection scheme for non local part
 use partial core corrections
 calculate Harris-corrections to forces 
   (improved forces if not selfconsistent)
 use gradient corrections 
 use of overlap-Matrix (Vanderbilt PP)
 Gauss-broadening in eV      SIGMA  =   0.03


--------------------------------------------------------------------------------------------------------


  energy-cutoff  :      400.00
  volume of cell :      137.00
      direct lattice vectors                 reciprocal lattice vectors
     5.513338631  0.005216050  0.059368387     0.180292398 -0.000096167  0.100852635
     0.005125467  4.964515113 -0.004428832    -0.000193597  0.201429992  0.000281278
    -2.783183063 -0.009622696  4.975435918    -0.002151475  0.000180448  0.199784261

  length of vectors
     5.513660733  4.964519735  5.700979138     0.206583184  0.201430281  0.199795927


 
 k-points in units of 2pi/SCALE and weight: KPOINTS created by Atomic Simulation Env
   0.00000000  0.00000000  0.00000000       0.003
   0.02575606 -0.00001374  0.01440752       0.006
   0.05151211 -0.00002748  0.02881504       0.006
   0.07726817 -0.00004121  0.04322256       0.006
  -0.00002766  0.02877571  0.00004018       0.006
   0.02572840  0.02876197  0.01444770       0.006
   0.05148446  0.02874824  0.02885522       0.006
   0.07724051  0.02873450  0.04326274       0.006
  -0.07729583  0.02881693 -0.04318238       0.006
  -0.05153977  0.02880319 -0.02877486       0.006
  -0.02578371  0.02878945 -0.01436734       0.006
  -0.00005531  0.05755143  0.00008037       0.006
   0.02570074  0.05753769  0.01448788       0.006
   0.05145680  0.05752395  0.02889540       0.006
   0.07721286  0.05751021  0.04330292       0.006
  -0.07732348  0.05759264 -0.04314219       0.006
  -0.05156743  0.05757890 -0.02873467       0.006
  -0.02581137  0.05756516 -0.01432715       0.006
  -0.00008297  0.08632714  0.00012055       0.006
   0.02567309  0.08631340  0.01452807       0.006
   0.05142914  0.08629966  0.02893559       0.006
   0.07718520  0.08628592  0.04334311       0.006
  -0.07735114  0.08636835 -0.04310201       0.006
  -0.05159508  0.08635462 -0.02869449       0.006
  -0.02583903  0.08634088 -0.01428697       0.006
  -0.00030735  0.00002578  0.02854061       0.006
   0.02544870  0.00001204  0.04294813       0.006
   0.05120476 -0.00000170  0.05735565       0.006
   0.07696082 -0.00001544  0.07176317       0.006
  -0.07757552  0.00006699 -0.01468195       0.006
  -0.05181947  0.00005325 -0.00027443       0.006
  -0.02606341  0.00003952  0.01413309       0.006
  -0.00033501  0.02880149  0.02858079       0.006
   0.02542105  0.02878775  0.04298831       0.006
   0.05117710  0.02877402  0.05739583       0.006
   0.07693316  0.02876028  0.07180335       0.006
  -0.07760318  0.02884271 -0.01464177       0.006
  -0.05184712  0.02882897 -0.00023425       0.006
  -0.02609107  0.02881523  0.01417327       0.006
  -0.00036267  0.05757720  0.02862097       0.006
   0.02539339  0.05756347  0.04302849       0.006
   0.05114945  0.05754973  0.05743601       0.006
   0.07690550  0.05753599  0.07184353       0.006
  -0.07763084  0.05761842 -0.01460158       0.006
  -0.05187478  0.05760468 -0.00019406       0.006
  -0.02611872  0.05759094  0.01421345       0.006
  -0.00039032  0.08635292  0.02866116       0.006
   0.02536573  0.08633918  0.04306868       0.006
   0.05112179  0.08632544  0.05747620       0.006
   0.07687785  0.08631170  0.07188371       0.006
  -0.07765849  0.08639413 -0.01456140       0.006
  -0.05190244  0.08638039 -0.00015388       0.006
  -0.02614638  0.08636666  0.01425364       0.006
  -0.00022438 -0.08630136  0.02842006       0.006
   0.02553167 -0.08631510  0.04282758       0.006
   0.05128773 -0.08632884  0.05723510       0.006
   0.07704379 -0.08634258  0.07164262       0.006
  -0.07749255 -0.08626015 -0.01480250       0.006
  -0.05173650 -0.08627388 -0.00039498       0.006
  -0.02598044 -0.08628762  0.01401254       0.006
  -0.00025204 -0.05752565  0.02846024       0.006
   0.02550402 -0.05753939  0.04286776       0.006
   0.05126007 -0.05755312  0.05727528       0.006
   0.07701613 -0.05756686  0.07168280       0.006
  -0.07752021 -0.05748443 -0.01476231       0.006
  -0.05176415 -0.05749817 -0.00035480       0.006
  -0.02600810 -0.05751191  0.01405272       0.006
  -0.00027970 -0.02874993  0.02850043       0.006
   0.02547636 -0.02876367  0.04290795       0.006
   0.05123242 -0.02877741  0.05731546       0.006
   0.07698847 -0.02879115  0.07172298       0.006
  -0.07754787 -0.02870872 -0.01472213       0.006
  -0.05179181 -0.02872246 -0.00031461       0.006
  -0.02603575 -0.02873620  0.01409291       0.006
  -0.00061471  0.00005156  0.05708122       0.006
   0.02514135  0.00003782  0.07148874       0.006
   0.05089741  0.00002408  0.08589626       0.006
   0.07665346  0.00001034  0.10030378       0.006
  -0.07788288  0.00009277  0.01385866       0.006
  -0.05212682  0.00007903  0.02826618       0.006
  -0.02637076  0.00006529  0.04267370       0.006
  -0.00064236  0.02882727  0.05712140       0.006
   0.02511369  0.02881353  0.07152892       0.006
   0.05086975  0.02879979  0.08593644       0.006
   0.07662581  0.02878606  0.10034396       0.006
  -0.07791053  0.02886848  0.01389884       0.006
  -0.05215448  0.02885475  0.02830636       0.006
  -0.02639842  0.02884101  0.04271388       0.006
  -0.00067002  0.05760298  0.05716158       0.006
   0.02508604  0.05758924  0.07156910       0.006
   0.05084209  0.05757551  0.08597662       0.006
   0.07659815  0.05756177  0.10038414       0.006
  -0.07793819  0.05764420  0.01393902       0.006
  -0.05218213  0.05763046  0.02834654       0.006
  -0.02642608  0.05761672  0.04275406       0.006
  -0.00069768  0.08637870  0.05720177       0.006
   0.02505838  0.08636496  0.07160928       0.006
   0.05081444  0.08635122  0.08601680       0.006
   0.07657049  0.08633748  0.10042432       0.006
  -0.07796585  0.08641991  0.01397921       0.006
  -0.05220979  0.08640617  0.02838673       0.006
  -0.02645373  0.08639243  0.04279425       0.006
  -0.00053174 -0.08627558  0.05696067       0.006
   0.02522432 -0.08628932  0.07136819       0.006
   0.05098038 -0.08630306  0.08577571       0.006
   0.07673643 -0.08631680  0.10018323       0.006
  -0.07779991 -0.08623437  0.01373811       0.006
  -0.05204385 -0.08624811  0.02814563       0.006
  -0.02628779 -0.08626184  0.04255315       0.006
  -0.00055939 -0.05749987  0.05700085       0.006
   0.02519666 -0.05751361  0.07140837       0.006
   0.05095272 -0.05752735  0.08581589       0.006
   0.07670878 -0.05754108  0.10022341       0.006
  -0.07782756 -0.05745866  0.01377829       0.006
  -0.05207151 -0.05747239  0.02818581       0.006
  -0.02631545 -0.05748613  0.04259333       0.006
  -0.00058705 -0.02872416  0.05704103       0.006
   0.02516901 -0.02873789  0.07144855       0.006
   0.05092506 -0.02875163  0.08585607       0.006
   0.07668112 -0.02876537  0.10026359       0.006
  -0.07785522 -0.02868294  0.01381848       0.006
  -0.05209916 -0.02869668  0.02822600       0.006
  -0.02634311 -0.02871042  0.04263352       0.006
  -0.00092206  0.00007733  0.08562183       0.006
   0.02483400  0.00006360  0.10002935       0.006
   0.05059005  0.00004986  0.11443686       0.006
   0.07634611  0.00003612  0.12884438       0.006
  -0.07819023  0.00011855  0.04239927       0.006
  -0.05243417  0.00010481  0.05680679       0.006
  -0.02667812  0.00009107  0.07121431       0.006
  -0.00094972  0.02885305  0.08566201       0.006
   0.02480634  0.02883931  0.10006953       0.006
   0.05056240  0.02882557  0.11447705       0.006
   0.07631845  0.02881183  0.12888457       0.006
  -0.07821789  0.02889426  0.04243945       0.006
  -0.05246183  0.02888052  0.05684697       0.006
  -0.02670577  0.02886679  0.07125449       0.006
  -0.00097737  0.05762876  0.08570219       0.006
   0.02477868  0.05761502  0.10010971       0.006
   0.05053474  0.05760128  0.11451723       0.006
   0.07629080  0.05758755  0.12892475       0.006
  -0.07824554  0.05766998  0.04247963       0.006
  -0.05248949  0.05765624  0.05688715       0.006
  -0.02673343  0.05764250  0.07129467       0.006
  -0.00100503  0.08640447  0.08574237       0.006
   0.02475103  0.08639074  0.10014989       0.006
   0.05050708  0.08637700  0.11455741       0.006
   0.07626314  0.08636326  0.12896493       0.006
  -0.07827320  0.08644569  0.04251982       0.006
  -0.05251714  0.08643195  0.05692734       0.006
  -0.02676109  0.08641821  0.07133485       0.006
  -0.00083909 -0.08624980  0.08550128       0.006
   0.02491697 -0.08626354  0.09990880       0.006
   0.05067302 -0.08627728  0.11431632       0.006
   0.07642908 -0.08629102  0.12872384       0.006
  -0.07810726 -0.08620859  0.04227872       0.006
  -0.05235120 -0.08622233  0.05668624       0.006
  -0.02659515 -0.08623607  0.07109376       0.006
  -0.00086675 -0.05747409  0.08554146       0.006
   0.02488931 -0.05748783  0.09994898       0.006
   0.05064537 -0.05750157  0.11435650       0.006
   0.07640142 -0.05751531  0.12876402       0.006
  -0.07813492 -0.05743288  0.04231890       0.006
  -0.05237886 -0.05744661  0.05672642       0.006
  -0.02662280 -0.05746035  0.07113394       0.006
  -0.00089440 -0.02869838  0.08558164       0.006
   0.02486165 -0.02871212  0.09998916       0.006
   0.05061771 -0.02872585  0.11439668       0.006
   0.07637377 -0.02873959  0.12880420       0.006
  -0.07816257 -0.02865716  0.04235909       0.006
  -0.05240652 -0.02867090  0.05676660       0.006
  -0.02665046 -0.02868464  0.07117412       0.006
 
 k-points in reciprocal lattice and weights: KPOINTS created by Atomic Simulation Env
   0.00000000  0.00000000  0.00000000       0.003
   0.14285714 -0.00000000  0.00000000       0.006
   0.28571429  0.00000000  0.00000000       0.006
   0.42857143  0.00000000 -0.00000000       0.006
  -0.00000000  0.14285714  0.00000000       0.006
   0.14285714  0.14285714  0.00000000       0.006
   0.28571429  0.14285714 -0.00000000       0.006
   0.42857143  0.14285714 -0.00000000       0.006
  -0.42857143  0.14285714  0.00000000       0.006
  -0.28571429  0.14285714  0.00000000       0.006
  -0.14285714  0.14285714  0.00000000       0.006
  -0.00000000  0.28571429 -0.00000000       0.006
   0.14285714  0.28571429  0.00000000       0.006
   0.28571429  0.28571429 -0.00000000       0.006
   0.42857143  0.28571429 -0.00000000       0.006
  -0.42857143  0.28571429  0.00000000       0.006
  -0.28571429  0.28571429  0.00000000       0.006
  -0.14285714  0.28571429  0.00000000       0.006
  -0.00000000  0.42857143  0.00000000       0.006
   0.14285714  0.42857143  0.00000000       0.006
   0.28571429  0.42857143 -0.00000000       0.006
   0.42857143  0.42857143  0.00000000       0.006
  -0.42857143  0.42857143  0.00000000       0.006
  -0.28571429  0.42857143  0.00000000       0.006
  -0.14285714  0.42857143  0.00000000       0.006
   0.00000000  0.00000000  0.14285714       0.006
   0.14285714  0.00000000  0.14285714       0.006
   0.28571429  0.00000000  0.14285714       0.006
   0.42857143  0.00000000  0.14285714       0.006
  -0.42857143  0.00000000  0.14285714       0.006
  -0.28571429  0.00000000  0.14285714       0.006
  -0.14285714  0.00000000  0.14285714       0.006
   0.00000000  0.14285714  0.14285714       0.006
   0.14285714  0.14285714  0.14285714       0.006
   0.28571429  0.14285714  0.14285714       0.006
   0.42857143  0.14285714  0.14285714       0.006
  -0.42857143  0.14285714  0.14285714       0.006
  -0.28571429  0.14285714  0.14285714       0.006
  -0.14285714  0.14285714  0.14285714       0.006
  -0.00000000  0.28571429  0.14285714       0.006
   0.14285714  0.28571429  0.14285714       0.006
   0.28571429  0.28571429  0.14285714       0.006
   0.42857143  0.28571429  0.14285714       0.006
  -0.42857143  0.28571429  0.14285714       0.006
  -0.28571429  0.28571429  0.14285714       0.006
  -0.14285714  0.28571429  0.14285714       0.006
  -0.00000000  0.42857143  0.14285714       0.006
   0.14285714  0.42857143  0.14285714       0.006
   0.28571429  0.42857143  0.14285714       0.006
   0.42857143  0.42857143  0.14285714       0.006
  -0.42857143  0.42857143  0.14285714       0.006
  -0.28571429  0.42857143  0.14285714       0.006
  -0.14285714  0.42857143  0.14285714       0.006
   0.00000000 -0.42857143  0.14285714       0.006
   0.14285714 -0.42857143  0.14285714       0.006
   0.28571429 -0.42857143  0.14285714       0.006
   0.42857143 -0.42857143  0.14285714       0.006
  -0.42857143 -0.42857143  0.14285714       0.006
  -0.28571429 -0.42857143  0.14285714       0.006
  -0.14285714 -0.42857143  0.14285714       0.006
   0.00000000 -0.28571429  0.14285714       0.006
   0.14285714 -0.28571429  0.14285714       0.006
   0.28571429 -0.28571429  0.14285714       0.006
   0.42857143 -0.28571429  0.14285714       0.006
  -0.42857143 -0.28571429  0.14285714       0.006
  -0.28571429 -0.28571429  0.14285714       0.006
  -0.14285714 -0.28571429  0.14285714       0.006
   0.00000000 -0.14285714  0.14285714       0.006
   0.14285714 -0.14285714  0.14285714       0.006
   0.28571429 -0.14285714  0.14285714       0.006
   0.42857143 -0.14285714  0.14285714       0.006
  -0.42857143 -0.14285714  0.14285714       0.006
  -0.28571429 -0.14285714  0.14285714       0.006
  -0.14285714 -0.14285714  0.14285714       0.006
  -0.00000000  0.00000000  0.28571429       0.006
   0.14285714 -0.00000000  0.28571429       0.006
   0.28571429 -0.00000000  0.28571429       0.006
   0.42857143  0.00000000  0.28571429       0.006
  -0.42857143 -0.00000000  0.28571429       0.006
  -0.28571429 -0.00000000  0.28571429       0.006
  -0.14285714 -0.00000000  0.28571429       0.006
   0.00000000  0.14285714  0.28571429       0.006
   0.14285714  0.14285714  0.28571429       0.006
   0.28571429  0.14285714  0.28571429       0.006
   0.42857143  0.14285714  0.28571429       0.006
  -0.42857143  0.14285714  0.28571429       0.006
  -0.28571429  0.14285714  0.28571429       0.006
  -0.14285714  0.14285714  0.28571429       0.006
   0.00000000  0.28571429  0.28571429       0.006
   0.14285714  0.28571429  0.28571429       0.006
   0.28571429  0.28571429  0.28571429       0.006
   0.42857143  0.28571429  0.28571429       0.006
  -0.42857143  0.28571429  0.28571429       0.006
  -0.28571429  0.28571429  0.28571429       0.006
  -0.14285714  0.28571429  0.28571429       0.006
  -0.00000000  0.42857143  0.28571429       0.006
   0.14285714  0.42857143  0.28571429       0.006
   0.28571429  0.42857143  0.28571429       0.006
   0.42857143  0.42857143  0.28571429       0.006
  -0.42857143  0.42857143  0.28571429       0.006
  -0.28571429  0.42857143  0.28571429       0.006
  -0.14285714  0.42857143  0.28571429       0.006
   0.00000000 -0.42857143  0.28571429       0.006
   0.14285714 -0.42857143  0.28571429       0.006
   0.28571429 -0.42857143  0.28571429       0.006
   0.42857143 -0.42857143  0.28571429       0.006
  -0.42857143 -0.42857143  0.28571429       0.006
  -0.28571429 -0.42857143  0.28571429       0.006
  -0.14285714 -0.42857143  0.28571429       0.006
  -0.00000000 -0.28571429  0.28571429       0.006
   0.14285714 -0.28571429  0.28571429       0.006
   0.28571429 -0.28571429  0.28571429       0.006
   0.42857143 -0.28571429  0.28571429       0.006
  -0.42857143 -0.28571429  0.28571429       0.006
  -0.28571429 -0.28571429  0.28571429       0.006
  -0.14285714 -0.28571429  0.28571429       0.006
   0.00000000 -0.14285714  0.28571429       0.006
   0.14285714 -0.14285714  0.28571429       0.006
   0.28571429 -0.14285714  0.28571429       0.006
   0.42857143 -0.14285714  0.28571429       0.006
  -0.42857143 -0.14285714  0.28571429       0.006
  -0.28571429 -0.14285714  0.28571429       0.006
  -0.14285714 -0.14285714  0.28571429       0.006
  -0.00000000  0.00000000  0.42857143       0.006
   0.14285714 -0.00000000  0.42857143       0.006
   0.28571429  0.00000000  0.42857143       0.006
   0.42857143 -0.00000000  0.42857143       0.006
  -0.42857143  0.00000000  0.42857143       0.006
  -0.28571429  0.00000000  0.42857143       0.006
  -0.14285714  0.00000000  0.42857143       0.006
   0.00000000  0.14285714  0.42857143       0.006
   0.14285714  0.14285714  0.42857143       0.006
   0.28571429  0.14285714  0.42857143       0.006
   0.42857143  0.14285714  0.42857143       0.006
  -0.42857143  0.14285714  0.42857143       0.006
  -0.28571429  0.14285714  0.42857143       0.006
  -0.14285714  0.14285714  0.42857143       0.006
   0.00000000  0.28571429  0.42857143       0.006
   0.14285714  0.28571429  0.42857143       0.006
   0.28571429  0.28571429  0.42857143       0.006
   0.42857143  0.28571429  0.42857143       0.006
  -0.42857143  0.28571429  0.42857143       0.006
  -0.28571429  0.28571429  0.42857143       0.006
  -0.14285714  0.28571429  0.42857143       0.006
   0.00000000  0.42857143  0.42857143       0.006
   0.14285714  0.42857143  0.42857143       0.006
   0.28571429  0.42857143  0.42857143       0.006
   0.42857143  0.42857143  0.42857143       0.006
  -0.42857143  0.42857143  0.42857143       0.006
  -0.28571429  0.42857143  0.42857143       0.006
  -0.14285714  0.42857143  0.42857143       0.006
   0.00000000 -0.42857143  0.42857143       0.006
   0.14285714 -0.42857143  0.42857143       0.006
   0.28571429 -0.42857143  0.42857143       0.006
   0.42857143 -0.42857143  0.42857143       0.006
  -0.42857143 -0.42857143  0.42857143       0.006
  -0.28571429 -0.42857143  0.42857143       0.006
  -0.14285714 -0.42857143  0.42857143       0.006
  -0.00000000 -0.28571429  0.42857143       0.006
   0.14285714 -0.28571429  0.42857143       0.006
   0.28571429 -0.28571429  0.42857143       0.006
   0.42857143 -0.28571429  0.42857143       0.006
  -0.42857143 -0.28571429  0.42857143       0.006
  -0.28571429 -0.28571429  0.42857143       0.006
  -0.14285714 -0.28571429  0.42857143       0.006
   0.00000000 -0.14285714  0.42857143       0.006
   0.14285714 -0.14285714  0.42857143       0.006
   0.28571429 -0.14285714  0.42857143       0.006
   0.42857143 -0.14285714  0.42857143       0.006
  -0.42857143 -0.14285714  0.42857143       0.006
  -0.28571429 -0.14285714  0.42857143       0.006
  -0.14285714 -0.14285714  0.42857143       0.006
 
 position of ions in fractional coordinates (direct lattice) 
   0.24380331  0.49810300  0.50344787
   0.73515645  0.00512858  0.98624238
   0.79515579  0.50224699  0.49568046
   0.30412453  0.99529723  0.01279836
   0.14420359  0.29879538  0.75159003
   0.91834183  0.80904616  0.78281988
   0.89485693  0.70163487  0.24758610
   0.12090477  0.19126149  0.21630490
   0.39153207  0.79322190  0.75844516
   0.62780753  0.31429197  0.72052814
   0.64767508  0.20718591  0.24064015
   0.41098224  0.68596953  0.27838929
   0.02185103  0.50039121  0.99992406
 
 position of ions in cartesian coordinates  (Angst):
  -0.05446434  2.46926706  2.51714080
   1.30829967  0.01980519  4.95060808
   3.00696793  2.49279058  2.51120913
   1.64622268  4.94263131  0.07732481
  -1.29523797  1.47689403  3.74672584
   2.88854516  4.01377918  3.94580751
   4.24816804  3.48556211  1.28186757
   0.06555308  0.94806975  1.08254204
   0.05182279  3.93270605  3.79332687
   1.45756471  1.55664849  3.62082155
   2.90216839  1.02964026  1.23482348
   1.49459183  3.40497095  1.40646936
  -2.65993484  2.47469173  4.97413920
 


--------------------------------------------------------------------------------------------------------


 k-point  1 :   0.0000 0.0000 0.0000  plane waves:    2497
 k-point  2 :   0.1429-0.0000 0.0000  plane waves:    2494
 k-point  3 :   0.2857 0.0000 0.0000  plane waves:    2490
 k-point  4 :   0.4286 0.0000-0.0000  plane waves:    2489
 k-point  5 :  -0.0000 0.1429 0.0000  plane waves:    2482
 k-point  6 :   0.1429 0.1429 0.0000  plane waves:    2492
 k-point  7 :   0.2857 0.1429-0.0000  plane waves:    2485
 k-point  8 :   0.4286 0.1429-0.0000  plane waves:    2492
 k-point  9 :  -0.4286 0.1429 0.0000  plane waves:    2489
 k-point 10 :  -0.2857 0.1429 0.0000  plane waves:    2487
 k-point 11 :  -0.1429 0.1429 0.0000  plane waves:    2490
 k-point 12 :  -0.0000 0.2857-0.0000  plane waves:    2475
 k-point 13 :   0.1429 0.2857 0.0000  plane waves:    2490
 k-point 14 :   0.2857 0.2857-0.0000  plane waves:    2497
 k-point 15 :   0.4286 0.2857-0.0000  plane waves:    2499
 k-point 16 :  -0.4286 0.2857 0.0000  plane waves:    2497
 k-point 17 :  -0.2857 0.2857 0.0000  plane waves:    2494
 k-point 18 :  -0.1429 0.2857 0.0000  plane waves:    2486
 k-point 19 :  -0.0000 0.4286 0.0000  plane waves:    2493
 k-point 20 :   0.1429 0.4286 0.0000  plane waves:    2494
 k-point 21 :   0.2857 0.4286-0.0000  plane waves:    2496
 k-point 22 :   0.4286 0.4286 0.0000  plane waves:    2488
 k-point 23 :  -0.4286 0.4286 0.0000  plane waves:    2495
 k-point 24 :  -0.2857 0.4286 0.0000  plane waves:    2490
 k-point 25 :  -0.1429 0.4286 0.0000  plane waves:    2495
 k-point 26 :   0.0000 0.0000 0.1429  plane waves:    2489
 k-point 27 :   0.1429 0.0000 0.1429  plane waves:    2484
 k-point 28 :   0.2857 0.0000 0.1429  plane waves:    2489
 k-point 29 :   0.4286 0.0000 0.1429  plane waves:    2490
 k-point 30 :  -0.4286 0.0000 0.1429  plane waves:    2479
 k-point 31 :  -0.2857 0.0000 0.1429  plane waves:    2495
 k-point 32 :  -0.1429 0.0000 0.1429  plane waves:    2496
 k-point 33 :   0.0000 0.1429 0.1429  plane waves:    2492
 k-point 34 :   0.1429 0.1429 0.1429  plane waves:    2488
 k-point 35 :   0.2857 0.1429 0.1429  plane waves:    2486
 k-point 36 :   0.4286 0.1429 0.1429  plane waves:    2492
 k-point 37 :  -0.4286 0.1429 0.1429  plane waves:    2493
 k-point 38 :  -0.2857 0.1429 0.1429  plane waves:    2496
 k-point 39 :  -0.1429 0.1429 0.1429  plane waves:    2491
 k-point 40 :  -0.0000 0.2857 0.1429  plane waves:    2481
 k-point 41 :   0.1429 0.2857 0.1429  plane waves:    2489
 k-point 42 :   0.2857 0.2857 0.1429  plane waves:    2493
 k-point 43 :   0.4286 0.2857 0.1429  plane waves:    2494
 k-point 44 :  -0.4286 0.2857 0.1429  plane waves:    2505
 k-point 45 :  -0.2857 0.2857 0.1429  plane waves:    2496
 k-point 46 :  -0.1429 0.2857 0.1429  plane waves:    2489
 k-point 47 :  -0.0000 0.4286 0.1429  plane waves:    2491
 k-point 48 :   0.1429 0.4286 0.1429  plane waves:    2494
 k-point 49 :   0.2857 0.4286 0.1429  plane waves:    2491
 k-point 50 :   0.4286 0.4286 0.1429  plane waves:    2494
 k-point 51 :  -0.4286 0.4286 0.1429  plane waves:    2489
 k-point 52 :  -0.2857 0.4286 0.1429  plane waves:    2496
 k-point 53 :  -0.1429 0.4286 0.1429  plane waves:    2494
 k-point 54 :   0.0000-0.4286 0.1429  plane waves:    2494
 k-point 55 :   0.1429-0.4286 0.1429  plane waves:    2486
 k-point 56 :   0.2857-0.4286 0.1429  plane waves:    2491
 k-point 57 :   0.4286-0.4286 0.1429  plane waves:    2492
 k-point 58 :  -0.4286-0.4286 0.1429  plane waves:    2489
 k-point 59 :  -0.2857-0.4286 0.1429  plane waves:    2491
 k-point 60 :  -0.1429-0.4286 0.1429  plane waves:    2493
 k-point 61 :   0.0000-0.2857 0.1429  plane waves:    2476
 k-point 62 :   0.1429-0.2857 0.1429  plane waves:    2484
 k-point 63 :   0.2857-0.2857 0.1429  plane waves:    2492
 k-point 64 :   0.4286-0.2857 0.1429  plane waves:    2488
 k-point 65 :  -0.4286-0.2857 0.1429  plane waves:    2501
 k-point 66 :  -0.2857-0.2857 0.1429  plane waves:    2492
 k-point 67 :  -0.1429-0.2857 0.1429  plane waves:    2484
 k-point 68 :   0.0000-0.1429 0.1429  plane waves:    2492
 k-point 69 :   0.1429-0.1429 0.1429  plane waves:    2490
 k-point 70 :   0.2857-0.1429 0.1429  plane waves:    2486
 k-point 71 :   0.4286-0.1429 0.1429  plane waves:    2494
 k-point 72 :  -0.4286-0.1429 0.1429  plane waves:    2487
 k-point 73 :  -0.2857-0.1429 0.1429  plane waves:    2496
 k-point 74 :  -0.1429-0.1429 0.1429  plane waves:    2492
 k-point 75 :  -0.0000 0.0000 0.2857  plane waves:    2459
 k-point 76 :   0.1429-0.0000 0.2857  plane waves:    2474
 k-point 77 :   0.2857-0.0000 0.2857  plane waves:    2475
 k-point 78 :   0.4286 0.0000 0.2857  plane waves:    2486
 k-point 79 :  -0.4286-0.0000 0.2857  plane waves:    2482
 k-point 80 :  -0.2857-0.0000 0.2857  plane waves:    2496
 k-point 81 :  -0.1429-0.0000 0.2857  plane waves:    2482
 k-point 82 :   0.0000 0.1429 0.2857  plane waves:    2473
 k-point 83 :   0.1429 0.1429 0.2857  plane waves:    2474
 k-point 84 :   0.2857 0.1429 0.2857  plane waves:    2477
 k-point 85 :   0.4286 0.1429 0.2857  plane waves:    2497
 k-point 86 :  -0.4286 0.1429 0.2857  plane waves:    2495
 k-point 87 :  -0.2857 0.1429 0.2857  plane waves:    2493
 k-point 88 :  -0.1429 0.1429 0.2857  plane waves:    2480
 k-point 89 :   0.0000 0.2857 0.2857  plane waves:    2476
 k-point 90 :   0.1429 0.2857 0.2857  plane waves:    2486
 k-point 91 :   0.2857 0.2857 0.2857  plane waves:    2484
 k-point 92 :   0.4286 0.2857 0.2857  plane waves:    2496
 k-point 93 :  -0.4286 0.2857 0.2857  plane waves:    2499
 k-point 94 :  -0.2857 0.2857 0.2857  plane waves:    2496
 k-point 95 :  -0.1429 0.2857 0.2857  plane waves:    2487
 k-point 96 :  -0.0000 0.4286 0.2857  plane waves:    2494
 k-point 97 :   0.1429 0.4286 0.2857  plane waves:    2495
 k-point 98 :   0.2857 0.4286 0.2857  plane waves:    2495
 k-point 99 :   0.4286 0.4286 0.2857  plane waves:    2491
 k-point ** :  -0.4286 0.4286 0.2857  plane waves:    2483
 k-point ** :  -0.2857 0.4286 0.2857  plane waves:    2491
 k-point ** :  -0.1429 0.4286 0.2857  plane waves:    2487
 k-point ** :   0.0000-0.4286 0.2857  plane waves:    2493
 k-point ** :   0.1429-0.4286 0.2857  plane waves:    2491
 k-point ** :   0.2857-0.4286 0.2857  plane waves:    2496
 k-point ** :   0.4286-0.4286 0.2857  plane waves:    2483
 k-point ** :  -0.4286-0.4286 0.2857  plane waves:    2481
 k-point ** :  -0.2857-0.4286 0.2857  plane waves:    2488
 k-point ** :  -0.1429-0.4286 0.2857  plane waves:    2491
 k-point ** :  -0.0000-0.2857 0.2857  plane waves:    2475
 k-point ** :   0.1429-0.2857 0.2857  plane waves:    2484
 k-point ** :   0.2857-0.2857 0.2857  plane waves:    2486
 k-point ** :   0.4286-0.2857 0.2857  plane waves:    2498
 k-point ** :  -0.4286-0.2857 0.2857  plane waves:    2498
 k-point ** :  -0.2857-0.2857 0.2857  plane waves:    2497
 k-point ** :  -0.1429-0.2857 0.2857  plane waves:    2490
 k-point ** :   0.0000-0.1429 0.2857  plane waves:    2474
 k-point ** :   0.1429-0.1429 0.2857  plane waves:    2477
 k-point ** :   0.2857-0.1429 0.2857  plane waves:    2480
 k-point ** :   0.4286-0.1429 0.2857  plane waves:    2496
 k-point ** :  -0.4286-0.1429 0.2857  plane waves:    2497
 k-point ** :  -0.2857-0.1429 0.2857  plane waves:    2493
 k-point ** :  -0.1429-0.1429 0.2857  plane waves:    2481
 k-point ** :  -0.0000 0.0000 0.4286  plane waves:    2474
 k-point ** :   0.1429-0.0000 0.4286  plane waves:    2471
 k-point ** :   0.2857 0.0000 0.4286  plane waves:    2475
 k-point ** :   0.4286-0.0000 0.4286  plane waves:    2496
 k-point ** :  -0.4286 0.0000 0.4286  plane waves:    2495
 k-point ** :  -0.2857 0.0000 0.4286  plane waves:    2491
 k-point ** :  -0.1429 0.0000 0.4286  plane waves:    2474
 k-point ** :   0.0000 0.1429 0.4286  plane waves:    2471
 k-point ** :   0.1429 0.1429 0.4286  plane waves:    2477
 k-point ** :   0.2857 0.1429 0.4286  plane waves:    2479
 k-point ** :   0.4286 0.1429 0.4286  plane waves:    2494
 k-point ** :  -0.4286 0.1429 0.4286  plane waves:    2495
 k-point ** :  -0.2857 0.1429 0.4286  plane waves:    2481
 k-point ** :  -0.1429 0.1429 0.4286  plane waves:    2478
 k-point ** :   0.0000 0.2857 0.4286  plane waves:    2490
 k-point ** :   0.1429 0.2857 0.4286  plane waves:    2497
 k-point ** :   0.2857 0.2857 0.4286  plane waves:    2486
 k-point ** :   0.4286 0.2857 0.4286  plane waves:    2498
 k-point ** :  -0.4286 0.2857 0.4286  plane waves:    2496
 k-point ** :  -0.2857 0.2857 0.4286  plane waves:    2494
 k-point ** :  -0.1429 0.2857 0.4286  plane waves:    2486
 k-point ** :   0.0000 0.4286 0.4286  plane waves:    2494
 k-point ** :   0.1429 0.4286 0.4286  plane waves:    2489
 k-point ** :   0.2857 0.4286 0.4286  plane waves:    2502
 k-point ** :   0.4286 0.4286 0.4286  plane waves:    2493
 k-point ** :  -0.4286 0.4286 0.4286  plane waves:    2493
 k-point ** :  -0.2857 0.4286 0.4286  plane waves:    2494
 k-point ** :  -0.1429 0.4286 0.4286  plane waves:    2494
 k-point ** :   0.0000-0.4286 0.4286  plane waves:    2489
 k-point ** :   0.1429-0.4286 0.4286  plane waves:    2488
 k-point ** :   0.2857-0.4286 0.4286  plane waves:    2500
 k-point ** :   0.4286-0.4286 0.4286  plane waves:    2493
 k-point ** :  -0.4286-0.4286 0.4286  plane waves:    2492
 k-point ** :  -0.2857-0.4286 0.4286  plane waves:    2495
 k-point ** :  -0.1429-0.4286 0.4286  plane waves:    2492
 k-point ** :  -0.0000-0.2857 0.4286  plane waves:    2491
 k-point ** :   0.1429-0.2857 0.4286  plane waves:    2499
 k-point ** :   0.2857-0.2857 0.4286  plane waves:    2488
 k-point ** :   0.4286-0.2857 0.4286  plane waves:    2497
 k-point ** :  -0.4286-0.2857 0.4286  plane waves:    2500
 k-point ** :  -0.2857-0.2857 0.4286  plane waves:    2495
 k-point ** :  -0.1429-0.2857 0.4286  plane waves:    2487
 k-point ** :   0.0000-0.1429 0.4286  plane waves:    2469
 k-point ** :   0.1429-0.1429 0.4286  plane waves:    2478
 k-point ** :   0.2857-0.1429 0.4286  plane waves:    2479
 k-point ** :   0.4286-0.1429 0.4286  plane waves:    2493
 k-point ** :  -0.4286-0.1429 0.4286  plane waves:    2489
 k-point ** :  -0.2857-0.1429 0.4286  plane waves:    2482
 k-point ** :  -0.1429-0.1429 0.4286  plane waves:    2474

 maximum and minimum number of plane-waves per node :       326      296

 maximum number of plane-waves:      2505
 maximum index in each direction: 
   IXMAX=    9   IYMAX=    8   IZMAX=    9
   IXMIN=   -9   IYMIN=   -8   IZMIN=   -9

 WARNING: aliasing errors must be expected set NGX to  38 to avoid them
 WARNING: aliasing errors must be expected set NGY to  34 to avoid them
 NGZ is ok and might be reduce to  38
 aliasing errors are usually negligible using standard VASP settings
 and one can safely disregard these warnings

 real space projection operators:
  total allocation   :       3367.30 KBytes
  max/ min on nodes  :        469.30        372.17


 parallel 3D FFT for wavefunctions:
    minimum data exchange during FFTs selected (reduces bandwidth)
 parallel 3D FFT for charge:
    minimum data exchange during FFTs selected (reduces bandwidth)


 total amount of memory used by VASP on root node    46653. kBytes
========================================================================

   base      :      30000. kBytes
   nonlr-proj:       1592. kBytes
   fftplans  :        319. kBytes
   grid      :        810. kBytes
   one-center:         62. kBytes
   wavefun   :      13870. kBytes
 
     INWAV:  cpu time    0.0000: real time    0.0000
 Broyden mixing: mesh for mixing (old mesh)
   NGX = 17   NGY = 17   NGZ = 19
  (NGX  = 60   NGY  = 54   NGZ  = 60)
  gives a total of   5491 points

 initial charge density was supplied:
 charge density of overlapping atoms calculated
 number of electron      73.0000000 magnetization      13.0000000
 keeping initial charge density in first step


--------------------------------------------------------------------------------------------------------


 Maximum index for non-local projection operator          691
 Maximum index for augmentation-charges          336 (set IRDMAX)


--------------------------------------------------------------------------------------------------------


 First call to EWALD:  gamma=   0.344
 Maximum number of real-space cells 3x 3x 3
 Maximum number of reciprocal cells 3x 3x 3

 FEWALD executed in parallel
    FEWALD:  cpu time    0.0017: real time    0.0017


----------------------------------------- Iteration    1(   1)  ---------------------------------------


    POTLOK:  cpu time    0.0082: real time    0.0083
    SETDIJ:  cpu time    0.0059: real time    0.0059
    EDDIAG:  cpu time    1.8444: real time    1.8583
  RMM-DIIS:  cpu time    0.8396: real time    0.8450
    ORTHCH:  cpu time    0.3687: real time    0.3709
       DOS:  cpu time    0.0074: real time    0.0078
    --------------------------------------------
      LOOP:  cpu time    3.0781: real time    3.1011

 eigenvalue-minimisations  : 19264
 total energy-change (2. order) : 0.7405831E+03  (-0.2376681E+04)
 number of electron      73.0000000 magnetization      13.0000000
 augmentation part       73.0000000 magnetization      13.0000000

 Free energy of the ion-electron system (eV)
  ---------------------------------------------------
  alpha Z        PSCENC =       343.94763572
  Ewald energy   TEWEN  =     -3790.19399452
  -Hartree energ DENC   =      -950.19255694
  -exchange      EXHF   =         0.00000000
  -V(xc)+E(xc)   XCENC  =       -24.52975033
  PAW double counting   =      3840.78059494    -3564.91968042
  entropy T*S    EENTRO =        -0.00087404
  eigenvalues    EBANDS =       552.22551523
  atomic energy  EATOM  =      4333.46621551
  Solvation  Ediel_sol  =         0.00000000
  ---------------------------------------------------
  free energy    TOTEN  =       740.58310513 eV

  energy without entropy =      740.58397917  energy(sigma->0) =      740.58354215


--------------------------------------------------------------------------------------------------------




----------------------------------------- Iteration    1(   2)  ---------------------------------------


    EDDIAG:  cpu time    1.8025: real time    1.8146
  RMM-DIIS:  cpu time    0.8363: real time    0.8413
    ORTHCH:  cpu time    0.3716: real time    0.3739
       DOS:  cpu time    0.0061: real time    0.0061
    --------------------------------------------
      LOOP:  cpu time    3.0178: real time    3.0501

 eigenvalue-minimisations  : 19264
 total energy-change (2. order) :-0.6106373E+03  (-0.6098632E+03)
 number of electron      73.0000000 magnetization      13.0000000
 augmentation part       73.0000000 magnetization      13.0000000

 Free energy of the ion-electron system (eV)
  ---------------------------------------------------
  alpha Z        PSCENC =       343.94763572
  Ewald energy   TEWEN  =     -3790.19399452
  -Hartree energ DENC   =      -950.19255694
  -exchange      EXHF   =         0.00000000
  -V(xc)+E(xc)   XCENC  =       -24.52975033
  PAW double counting   =      3840.78059494    -3564.91968042
  entropy T*S    EENTRO =        -0.00159911
  eigenvalues    EBANDS =       -58.41102952
  atomic energy  EATOM  =      4333.46621551
  Solvation  Ediel_sol  =         0.00000000
  ---------------------------------------------------
  free energy    TOTEN  =       129.94583532 eV

  energy without entropy =      129.94743443  energy(sigma->0) =      129.94663487


--------------------------------------------------------------------------------------------------------




----------------------------------------- Iteration    1(   3)  ---------------------------------------


    EDDIAG:  cpu time    1.8000: real time    1.8118
  RMM-DIIS:  cpu time    0.8328: real time    0.8375
    ORTHCH:  cpu time    0.3677: real time    0.3699
       DOS:  cpu time    0.0071: real time    0.0071
    --------------------------------------------
      LOOP:  cpu time    3.0089: real time    3.0398

 eigenvalue-minimisations  : 19264
 total energy-change (2. order) :-0.1855623E+03  (-0.1627138E+03)
 number of electron      73.0000000 magnetization      13.0000000
 augmentation part       73.0000000 magnetization      13.0000000

 Free energy of the ion-electron system (eV)
  ---------------------------------------------------
  alpha Z        PSCENC =       343.94763572
  Ewald energy   TEWEN  =     -3790.19399452
  -Hartree energ DENC   =      -950.19255694
  -exchange      EXHF   =         0.00000000
  -V(xc)+E(xc)   XCENC  =       -24.52975033
  PAW double counting   =      3840.78059494    -3564.91968042
  entropy T*S    EENTRO =        -0.00141798
  eigenvalues    EBANDS =      -243.97350952
  atomic energy  EATOM  =      4333.46621551
  Solvation  Ediel_sol  =         0.00000000
  ---------------------------------------------------
  free energy    TOTEN  =       -55.61646355 eV

  energy without entropy =      -55.61504557  energy(sigma->0) =      -55.61575456


--------------------------------------------------------------------------------------------------------




----------------------------------------- Iteration    1(   4)  ---------------------------------------


    EDDIAG:  cpu time    1.8166: real time    1.8292
  RMM-DIIS:  cpu time    0.8376: real time    0.8422
    ORTHCH:  cpu time    0.3667: real time    0.3688
       DOS:  cpu time    0.0069: real time    0.0070
    --------------------------------------------
      LOOP:  cpu time    3.0291: real time    3.0610

 eigenvalue-minimisations  : 19264
 total energy-change (2. order) :-0.5361459E+02  (-0.3926414E+02)
 number of electron      73.0000000 magnetization      13.0000000
 augmentation part       73.0000000 magnetization      13.0000000

 Free energy of the ion-electron system (eV)
  ---------------------------------------------------
  alpha Z        PSCENC =       343.94763572
  Ewald energy   TEWEN  =     -3790.19399452
  -Hartree energ DENC   =      -950.19255694
  -exchange      EXHF   =         0.00000000
  -V(xc)+E(xc)   XCENC  =       -24.52975033
  PAW double counting   =      3840.78059494    -3564.91968042
  entropy T*S    EENTRO =        -0.00155522
  eigenvalues    EBANDS =      -297.58795965
  atomic energy  EATOM  =      4333.46621551
  Solvation  Ediel_sol  =         0.00000000
  ---------------------------------------------------
  free energy    TOTEN  =      -109.23105092 eV

  energy without entropy =     -109.22949570  energy(sigma->0) =     -109.23027331


--------------------------------------------------------------------------------------------------------




----------------------------------------- Iteration    1(   5)  ---------------------------------------


    EDDIAG:  cpu time    1.7998: real time    1.8117
  RMM-DIIS:  cpu time    0.8375: real time    0.8420
    ORTHCH:  cpu time    0.3674: real time    0.3695
[...]
     36       4.9321      1.00000
     37       5.5015      0.00000
     38       5.7911      0.00000
     39       6.1804      0.00000
     40       6.2859      0.00000
     41       6.5625      0.00000
     42       6.9649      0.00000
     43       7.7767      0.00000
     44       7.8424      0.00000
     45       8.3447      0.00000
     46       8.7021      0.00000
     47       8.8336      0.00000
     48       9.3773      0.00000
     49       9.4706      0.00000
     50       9.5806      0.00000
     51      10.1231      0.00000
     52      10.9381      0.00000
     53      11.6981      0.00000
     54      13.3186      0.00000
     55      14.2405      0.00000
     56      15.9094      0.00000


--------------------------------------------------------------------------------------------------------


 soft charge-density along one line, spin component           1
         0         1         2         3         4         5         6         7         8         9
 total charge-density along one line
 
 soft charge-density along one line, spin component           2
         0         1         2         3         4         5         6         7         8         9
 total charge-density along one line
 
 pseudopotential strength for first ion, spin component:           1
 -8.016   0.001   0.001   0.012  -0.000  -8.228   0.001   0.001
  0.001  -8.044  -0.010   0.000   0.022   0.001  -8.256  -0.010
  0.001  -0.010  -8.024   0.001  -0.016   0.001  -0.010  -8.235
  0.012   0.000   0.001  -8.025   0.002   0.012   0.000   0.001
 -0.000   0.022  -0.016   0.002  -8.012  -0.000   0.022  -0.016
 -8.228   0.001   0.001   0.012  -0.000  -8.430   0.001   0.001
  0.001  -8.256  -0.010   0.000   0.022   0.001  -8.457  -0.010
  0.001  -0.010  -8.235   0.001  -0.016   0.001  -0.010  -8.437
  0.012   0.000   0.001  -8.237   0.002   0.012   0.000   0.001
 -0.000   0.022  -0.016   0.002  -8.224  -0.000   0.022  -0.016
  0.000   0.006   0.007  -0.001  -0.009   0.000   0.006   0.007
  0.001   0.011   0.016  -0.003  -0.019   0.001   0.011   0.015
 -0.036  -0.004   0.002   0.004  -0.002  -0.036  -0.004   0.002
  0.004   0.005  -0.021  -0.037  -0.004   0.004   0.005  -0.022
 -0.001   0.004   0.027  -0.012  -0.047  -0.001   0.004   0.027
 -0.051  -0.004   0.002   0.005  -0.004  -0.051  -0.004   0.002
  0.005   0.008  -0.025  -0.053  -0.005   0.005   0.008  -0.025
  0.001   0.005   0.036  -0.013  -0.064   0.001   0.005   0.036
 pseudopotential strength for first ion, spin component:           2
 -8.016   0.001   0.001   0.012  -0.000  -8.228   0.001   0.001
  0.001  -8.044  -0.010   0.000   0.022   0.001  -8.256  -0.010
  0.001  -0.010  -8.024   0.001  -0.016   0.001  -0.010  -8.235
  0.012   0.000   0.001  -8.025   0.002   0.012   0.000   0.001
 -0.000   0.022  -0.016   0.002  -8.012  -0.000   0.022  -0.016
 -8.228   0.001   0.001   0.012  -0.000  -8.430   0.001   0.001
  0.001  -8.256  -0.010   0.000   0.022   0.001  -8.457  -0.010
  0.001  -0.010  -8.235   0.001  -0.016   0.001  -0.010  -8.437
  0.012   0.000   0.001  -8.237   0.002   0.012   0.000   0.001
 -0.000   0.022  -0.016   0.002  -8.224  -0.000   0.022  -0.016
  0.000   0.006   0.007  -0.001  -0.009   0.000   0.006   0.007
  0.001   0.011   0.016  -0.003  -0.019   0.001   0.011   0.015
 -0.036  -0.004   0.002   0.004  -0.002  -0.036  -0.004   0.002
  0.004   0.005  -0.021  -0.037  -0.004   0.004   0.005  -0.022
 -0.001   0.004   0.027  -0.012  -0.047  -0.001   0.004   0.027
 -0.051  -0.004   0.002   0.005  -0.004  -0.051  -0.004   0.002
  0.005   0.008  -0.025  -0.053  -0.005   0.005   0.008  -0.025
  0.001   0.005   0.036  -0.013  -0.064   0.001   0.005   0.036
 total augmentation occupancy for first ion, spin component:           1
  6.589   0.131  -0.066  -3.756  -0.091  -7.212  -0.148   0.089   4.772   0.084  -0.056   0.004   0.025  -0.238   0.043  -0.003
  0.131  10.687   1.187   0.096  -4.192  -0.148 -12.278  -1.356  -0.105   5.037  -0.101   0.004  -0.293  -0.222  -0.295   0.044
 -0.066   1.187   3.312   0.092  -0.643   0.087  -1.372  -3.421  -0.107   0.818  -0.361   0.033  -0.028   0.053   0.166   0.004
 -3.756   0.096   0.092   8.481  -0.122   4.777  -0.103  -0.107  -9.554   0.125  -0.027   0.005  -0.245   0.149  -0.098   0.028
 -0.091  -4.192  -0.643  -0.122   5.061   0.085   5.054   0.817   0.126  -5.520   0.119  -0.005   0.220   0.112  -0.128  -0.031
 -7.212  -0.148   0.087   4.777   0.085   8.676   0.166  -0.098  -5.575  -0.085   0.062  -0.005  -0.060   0.240  -0.047   0.001
 -0.148 -12.278  -1.372  -0.103   5.054   0.166  14.588   1.460   0.125  -5.697   0.145  -0.002   0.338   0.237   0.267  -0.050
  0.089  -1.356  -3.421  -0.107   0.817  -0.098   1.460   4.481   0.112  -1.135   0.315  -0.034   0.020  -0.034  -0.095  -0.002
  4.772  -0.105  -0.107  -9.554   0.126  -5.575   0.125   0.112  11.370  -0.118   0.037  -0.007   0.244  -0.180   0.115  -0.030
  0.084   5.037   0.818   0.125  -5.520  -0.085  -5.697  -1.135  -0.118   6.976  -0.016   0.005  -0.246  -0.121   0.022   0.034
 -0.056  -0.101  -0.361  -0.027   0.119   0.062   0.145   0.315   0.037  -0.016   1.913  -0.147   0.050   0.064  -0.072  -0.006
  0.004   0.004   0.033   0.005  -0.005  -0.005  -0.002  -0.034  -0.007   0.005  -0.147   0.015  -0.005  -0.004   0.003   0.001
  0.025  -0.293  -0.028  -0.245   0.220  -0.060   0.338   0.020   0.244  -0.246   0.050  -0.005   0.431   0.010   0.001  -0.057
 -0.238  -0.222   0.053   0.149   0.112   0.240   0.237  -0.034  -0.180  -0.121   0.064  -0.004   0.010   0.469   0.004  -0.001
  0.043  -0.295   0.166  -0.098  -0.128  -0.047   0.267  -0.095   0.115   0.022  -0.072   0.003   0.001   0.004   0.419  -0.000
 -0.003   0.044   0.004   0.028  -0.031   0.001  -0.050  -0.002  -0.030   0.034  -0.006   0.001  -0.057  -0.001  -0.000   0.008
  0.028   0.028  -0.006  -0.018  -0.015  -0.029  -0.029  -0.002   0.017   0.016  -0.009   0.001  -0.001  -0.062  -0.001   0.000
 -0.010   0.030  -0.024   0.018   0.023   0.009  -0.031   0.027  -0.023  -0.027   0.000   0.000   0.000  -0.000  -0.052   0.000
 total augmentation occupancy for first ion, spin component:           2
  0.000   0.000   0.000  -0.000   0.000  -0.000  -0.000  -0.000   0.000  -0.000  -0.000   0.000  -0.000  -0.000   0.000  -0.000
  0.000   0.000  -0.000   0.000  -0.000  -0.000  -0.000   0.000  -0.000   0.000   0.000  -0.000  -0.000  -0.000  -0.000   0.000
  0.000  -0.000  -0.000   0.000  -0.000  -0.000   0.000   0.000  -0.000   0.000   0.000   0.000  -0.000  -0.000   0.000   0.000
 -0.000   0.000   0.000   0.000   0.000   0.000  -0.000  -0.000  -0.000  -0.000  -0.000   0.000  -0.000  -0.000  -0.000   0.000
  0.000  -0.000  -0.000   0.000  -0.000  -0.000   0.000   0.000  -0.000  -0.000   0.000   0.000   0.000  -0.000  -0.000  -0.000
 -0.000  -0.000  -0.000   0.000  -0.000   0.000  -0.000   0.000  -0.000   0.000   0.000  -0.000   0.000   0.000  -0.000   0.000
 -0.000  -0.000   0.000  -0.000   0.000  -0.000   0.000  -0.000   0.000  -0.000  -0.000   0.000   0.000   0.000   0.000  -0.000
 -0.000   0.000   0.000  -0.000   0.000   0.000  -0.000  -0.000   0.000  -0.000  -0.000  -0.000   0.000   0.000  -0.000  -0.000
  0.000  -0.000  -0.000  -0.000  -0.000  -0.000   0.000   0.000   0.000   0.000   0.000  -0.000   0.000   0.000   0.000  -0.000
 -0.000   0.000   0.000  -0.000  -0.000   0.000  -0.000  -0.000   0.000   0.000   0.000  -0.000  -0.000   0.000   0.000   0.000
 -0.000   0.000   0.000  -0.000   0.000   0.000  -0.000  -0.000   0.000   0.000   0.000  -0.000   0.000   0.000  -0.000  -0.000
  0.000  -0.000   0.000   0.000   0.000  -0.000   0.000  -0.000  -0.000  -0.000  -0.000   0.000  -0.000  -0.000   0.000   0.000
 -0.000  -0.000  -0.000  -0.000   0.000   0.000   0.000   0.000   0.000  -0.000   0.000  -0.000   0.000   0.000   0.000  -0.000
 -0.000  -0.000  -0.000  -0.000  -0.000   0.000   0.000   0.000   0.000   0.000   0.000  -0.000   0.000   0.000   0.000  -0.000
  0.000  -0.000   0.000  -0.000  -0.000  -0.000   0.000  -0.000   0.000   0.000  -0.000   0.000   0.000   0.000   0.000  -0.000
 -0.000   0.000   0.000   0.000  -0.000   0.000  -0.000  -0.000  -0.000   0.000  -0.000   0.000  -0.000  -0.000  -0.000   0.000
  0.000   0.000   0.000  -0.000   0.000  -0.000  -0.000   0.000   0.000   0.000  -0.000   0.000  -0.000  -0.000  -0.000   0.000
 -0.000   0.000  -0.000   0.000   0.000   0.000  -0.000   0.000  -0.000   0.000   0.000  -0.000  -0.000  -0.000  -0.000   0.000


------------------------ aborting loop because EDIFF is reached ----------------------------------------


 


 total charge     
 
# of ion     s       p       d       tot
----------------------------------------
  1        0.447   0.693   4.341   5.481
  2        0.448   0.701   4.316   5.465
  3        0.447   0.693   4.340   5.480
  4        0.448   0.701   4.317   5.467
  5        1.589   3.497   0.000   5.087
  6        1.584   3.492   0.000   5.076
  7        1.589   3.496   0.000   5.086
  8        1.584   3.492   0.000   5.076
  9        1.594   3.490   0.000   5.085
 10        1.584   3.477   0.000   5.062
 11        1.594   3.490   0.000   5.085
 12        1.584   3.478   0.000   5.063
 13        0.129   0.291   0.000   0.419
------------------------------------------------
tot       14.625  30.992  17.315  62.931
 


 magnetization (x)
 
# of ion     s       p       d       tot
----------------------------------------
  1        0.000   0.000  -0.000  -0.000
  2       -0.000  -0.000  -0.000  -0.000
  3        0.000   0.000  -0.000  -0.000
  4       -0.000  -0.000  -0.000  -0.000
  5        0.000   0.000   0.000   0.000
  6        0.000   0.000   0.000   0.000
  7        0.000   0.000   0.000   0.000
  8        0.000   0.000   0.000   0.000
  9        0.000   0.000   0.000   0.000
 10        0.000   0.000   0.000   0.000
 11        0.000   0.000   0.000   0.000
 12        0.000   0.000   0.000   0.000
 13        0.000   0.000   0.000   0.000
------------------------------------------------
tot       -0.000   0.000  -0.000  -0.000
 
    CHARGE:  cpu time    0.1074: real time    0.1080
    FORLOC:  cpu time    0.0002: real time    0.0002
    FORNL :  cpu time    0.7810: real time    0.7853
    STRESS:  cpu time    2.3583: real time    2.3708
    FORCOR:  cpu time    0.0049: real time    0.0049
    FORHAR:  cpu time    0.0007: real time    0.0007
    MIXING:  cpu time    0.0005: real time    0.0005
    OFIELD:  cpu time    0.0000: real time    0.0000

 ---------------------------------------------------------------------------------------------

         DFTD3 V3.0 Rev 1        
 IVDW         = 12
 DF pbe       
 parameters
 VDW_S6       =    1.0000
 VDW_S8       =    0.7875
 VDW_A1       =    0.4289
 VDW_A2       =    4.4407
 k1-k3        =   16.0000    1.3333   -4.0000
 VDW_RADIUS   =   50.2022 A
 VDW_CNRADIUS =   21.1671 A
 Edisp (eV)   -3.39915

 E6    (eV) :    -2.0466
 E8    (eV) :    -1.3525
 % E8        : 39.79
    FORVDW:  cpu time    0.0729: real time    0.0774

  FORCE on cell =-STRESS in cart. coord.  units (eV):
  Direction    XX          YY          ZZ          XY          YZ          ZX
  --------------------------------------------------------------------------------------
  Alpha Z   343.94764   343.94764   343.94764
  Ewald   -1129.69194 -1337.33467 -1323.17238     2.17245     5.86737     3.04452
  Hartree   424.63824   319.20633   301.58218     0.29940     3.41508     0.98203
  E(xc)    -359.52462  -355.35014  -355.77942    -0.11145    -0.18682     0.02011
  Local    -480.47184  -172.00086  -164.02403    -2.35273    -9.71045    -4.32775
  n-local  -258.12368  -247.40247  -244.90220    -0.13007     0.12916     0.45097
  augment    89.88975    88.13782    87.73282     0.06045     0.06864    -0.02166
  Kinetic  1368.05397  1359.58019  1353.42534     0.08216     0.41507    -0.14656
  Fock        0.00000     0.00000     0.00000     0.00000     0.00000     0.00000
  vdW        -3.51442    -3.55903    -3.56405     0.00128     0.00369    -0.00278
  -------------------------------------------------------------------------------------
  Total      -4.79690    -4.77519    -4.75412     0.02150     0.00173    -0.00112
  in kB     -56.09729   -55.84330   -55.59690     0.25140     0.02026    -0.01311
  external pressure =      -55.85 kB  Pullay stress =        0.00 kB


 VOLUME and BASIS-vectors are now :
 -----------------------------------------------------------------------------
  energy-cutoff  :      400.00
  volume of cell :      137.00
      direct lattice vectors                 reciprocal lattice vectors
     5.513338631  0.005216050  0.059368387     0.180292398 -0.000096167  0.100852635
     0.005125467  4.964515113 -0.004428832    -0.000193597  0.201429992  0.000281278
    -2.783183063 -0.009622696  4.975435918    -0.002151475  0.000180448  0.199784261

  length of vectors
     5.513660733  4.964519735  5.700979138     0.206583184  0.201430281  0.199795927


 FORCES acting on ions
    electron-ion (+dipol)            ewald-force                    non-local-force                 convergence-correction
 -----------------------------------------------------------------------------------------------
   -.215E+02 0.127E+02 0.122E+02   0.224E+02 -.126E+02 -.108E+02   -.943E+00 -.145E+00 -.141E+01   0.237E-03 0.201E-03 0.122E-03
   -.180E+02 -.511E+01 0.173E+02   0.190E+02 0.514E+01 -.171E+02   -.102E+01 -.343E-01 -.155E+00   0.837E-03 0.402E-03 -.502E-04
   0.216E+02 -.128E+02 -.122E+02   -.225E+02 0.126E+02 0.108E+02   0.958E+00 0.166E+00 0.141E+01   -.374E-03 -.172E-03 -.756E-04
   0.179E+02 0.512E+01 -.173E+02   -.189E+02 -.515E+01 0.172E+02   0.100E+01 0.280E-01 0.169E+00   -.751E-03 -.428E-03 0.266E-04
   0.375E+01 0.150E+02 -.182E+02   -.350E+01 -.190E+02 0.231E+02   -.256E+00 0.406E+01 -.488E+01   -.913E-03 0.180E-03 0.117E-02
   0.976E+01 -.420E+01 0.351E+02   -.947E+01 0.680E+01 -.428E+02   -.302E+00 -.260E+01 0.775E+01   0.420E-03 -.343E-03 -.419E-04
   -.369E+01 -.149E+02 0.184E+02   0.344E+01 0.189E+02 -.233E+02   0.243E+00 -.402E+01 0.495E+01   0.416E-03 0.722E-04 -.146E-02
   -.950E+01 0.420E+01 -.350E+02   0.917E+01 -.681E+01 0.428E+02   0.342E+00 0.262E+01 -.775E+01   -.972E-03 0.438E-04 -.263E-03
   -.110E+02 -.202E+01 0.343E+02   0.116E+02 0.212E+00 -.405E+02   -.550E+00 0.181E+01 0.624E+01   -.495E-03 -.766E-03 -.146E-03
   -.379E+01 0.136E+02 -.645E+01   0.358E+01 -.153E+02 0.803E+01   0.221E+00 0.170E+01 -.159E+01   0.935E-03 -.695E-03 0.210E-02
   0.109E+02 0.206E+01 -.343E+02   -.114E+02 -.261E+00 0.405E+02   0.512E+00 -.181E+01 -.624E+01   0.113E-02 0.111E-02 0.461E-03
   0.355E+01 -.137E+02 0.623E+01   -.329E+01 0.155E+02 -.773E+01   -.255E+00 -.175E+01 0.151E+01   -.457E-03 0.467E-03 -.181E-02
   0.146E+00 0.130E-01 0.208E-01   -.132E+00 -.135E-01 -.199E-01   -.184E-01 0.244E-04 -.397E-02   -.169E-04 0.189E-05 -.180E-04
 -----------------------------------------------------------------------------------------------
   0.670E-01 -.539E-02 0.701E-02   0.533E-13 0.799E-14 0.107E-13   -.674E-01 0.269E-01 0.165E-01   -.262E-05 0.732E-04 0.211E-04
 
 
 POSITION                                       TOTAL-FORCE (eV/Angst)
 -----------------------------------------------------------------------------------
     -0.05446      2.46927      2.51714         0.017662      0.007364     -0.006745
      1.30830      0.01981      4.95061        -0.004626      0.000176      0.001416
      3.00697      2.49279      2.51121        -0.003011      0.011691      0.011979
      1.64622      4.94263      0.07732        -0.012377     -0.004721      0.010676
     -1.29524      1.47689      3.74673        -0.002125     -0.007297     -0.005096
      2.88855      4.01378      3.94581        -0.011327     -0.000046      0.007530
      4.24817      3.48556      1.28187         0.000217     -0.001378      0.009315
      0.06555      0.94807      1.08254         0.011231      0.003357     -0.011220
      0.05182      3.93271      3.79333         0.006701     -0.002187      0.002247
      1.45756      1.55665      3.62082         0.010157     -0.003083     -0.009340
      2.90217      1.02964      1.23482        -0.004282     -0.004537     -0.010921
      1.49459      3.40497      1.40647        -0.004034      0.002797      0.005037
     -2.65993      2.47469      4.97414        -0.004185     -0.002135     -0.004878
 -----------------------------------------------------------------------------------
    total drift:                               -0.000471      0.021626      0.023554


--------------------------------------------------------------------------------------------------------



  FREE ENERGIE OF THE ION-ELECTRON SYSTEM (eV)
  ---------------------------------------------------
  free  energy   TOTEN  =      -112.60786941 eV

  energy  without entropy=     -112.60687699  energy(sigma->0) =     -112.60737320
 


--------------------------------------------------------------------------------------------------------


    POTLOK:  cpu time    0.0113: real time    0.0114


--------------------------------------------------------------------------------------------------------


 stress matrix after NEB project (eV)
     -4.79690      0.02150     -0.00112
      0.02150     -4.77519      0.00173
     -0.00112      0.00173     -4.75412
  FORCES: max atom, RMS     0.020290    0.012838
  FORCE total and by dimension    0.046290    0.017662
  Stress total and by dimension    8.271351    4.796905
     LOOP+:  cpu time   92.5253: real time   93.4135
    4ORBIT:  cpu time    0.0000: real time    0.0000
 


 total charge     
 
# of ion     s       p       d       tot
----------------------------------------
  1        0.447   0.693   4.341   5.481
  2        0.448   0.701   4.316   5.465
  3        0.447   0.693   4.340   5.480
  4        0.448   0.701   4.317   5.467
  5        1.589   3.497   0.000   5.087
  6        1.584   3.492   0.000   5.076
  7        1.589   3.496   0.000   5.086
  8        1.584   3.492   0.000   5.076
  9        1.594   3.490   0.000   5.085
 10        1.584   3.477   0.000   5.062
 11        1.594   3.490   0.000   5.085
 12        1.584   3.478   0.000   5.063
 13        0.129   0.291   0.000   0.419
------------------------------------------------
tot       14.625  30.992  17.315  62.931
 


 magnetization (x)
 
# of ion     s       p       d       tot
----------------------------------------
  1        0.000   0.000  -0.000  -0.000
  2       -0.000  -0.000  -0.000  -0.000
  3        0.000   0.000  -0.000  -0.000
  4       -0.000  -0.000  -0.000  -0.000
  5        0.000   0.000   0.000   0.000
  6        0.000   0.000   0.000   0.000
  7        0.000   0.000   0.000   0.000
  8        0.000   0.000   0.000   0.000
  9        0.000   0.000   0.000   0.000
 10        0.000   0.000   0.000   0.000
 11        0.000   0.000   0.000   0.000
 12        0.000   0.000   0.000   0.000
 13        0.000   0.000   0.000   0.000
------------------------------------------------
tot       -0.000   0.000  -0.000  -0.000
 

 total amount of memory used by VASP on root node    46653. kBytes
========================================================================

   base      :      30000. kBytes
   nonlr-proj:       1592. kBytes
   fftplans  :        319. kBytes
   grid      :        810. kBytes
   one-center:         62. kBytes
   wavefun   :      13870. kBytes
 
  
  
 General timing and accounting informations for this job:
 ========================================================
  
                  Total CPU time used (sec):      106.015
                            User time (sec):      102.235
                          System time (sec):        3.780
                         Elapsed time (sec):      116.648
  
                   Maximum memory used (kb):      522632.
                   Average memory used (kb):           0.
  
                          Minor page faults:       115108
                          Major page faults:          202
                 Voluntary context switches:         5854
