 vasp.5.4.1 05Feb16 (build Apr 23 2022 14:15:44) complex                        
  
 executed on           IFC91_ompi date 2024.12.30  13:50:38
 running on   64 total cores
 distrk:  each k-point on   64 cores,    1 groups
 distr:  one band on NCORES_PER_BAND=   8 cores,    8 groups


--------------------------------------------------------------------------------------------------------


 INCAR:
 POTCAR:    PAW_PBE Mo 08Apr2002                  
 POTCAR:    PAW_PBE O 08Apr2002                   
 POTCAR:    PAW_PBE Mo 08Apr2002                  
   VRHFIN =Mo: 4p5s4d                                                           
   LEXCH  = PE                                                                  
   EATOM  =   217.5176 eV,   15.9871 Ry                                         
                                                                                
   TITEL  = PAW_PBE Mo 08Apr2002                                                
   LULTRA =        F    use ultrasoft PP ?                                      
   IUNSCR =        1    unscreen: 0-lin 1-nonlin 2-no                           
   RPACOR =    2.200    partial core radius                                     
   POMASS =   95.940; ZVAL   =    6.000    mass and valenz                      
   RCORE  =    2.750    outmost cutoff radius                                   
   RWIGS  =    2.750; RWIGS  =    1.455    wigner-seitz radius (au A)           
   ENMAX  =  224.584; ENMIN  =  168.438 eV                                      
   RCLOC  =    2.111    cutoff for local pot                                    
   LCOR   =        T    correct aug charges                                     
   LPAW   =        T    paw PP                                                  
   EAUG   =  345.278                                                            
   DEXC   =    0.000                                                            
   RMAX   =    2.821    core radius for proj-oper                               
   RAUG   =    1.300    factor for augmentation sphere                          
   RDEP   =    2.815    radius for radial grids                                 
   RDEPT  =    2.211    core radius for aug-charge                              
                                                                                
   Atomic configuration                                                         
   12 entries                                                                   
     n  l   j            E        occ.                                          
     1  0  0.50    -19819.0341   2.0000                                         
     2  0  0.50     -2799.0127   2.0000                                         
     2  1  1.50     -2502.0276   6.0000                                         
     3  0  0.50      -476.4448   2.0000                                         
     3  1  1.50      -379.1496   6.0000                                         
     3  2  2.50      -220.9367  10.0000                                         
     4  0  0.50       -64.3378   2.0000                                         
     4  1  1.50       -38.4773   6.0000                                         
     4  2  2.50        -3.7535   5.0000                                         
     5  0  0.50        -4.0862   1.0000                                         
     5  1  0.50        -2.7701   0.0000                                         
     4  3  2.50        -1.3606   0.0000                                         
   Description                                                                  
     l       E           TYP  RCUT    TYP  RCUT                                 
     2     -3.7534765     23  2.500                                             
     2     -5.1140591     23  2.500                                             
     0     -4.0861560     23  2.600                                             
     0     13.6058260     23  2.600                                             
     1      5.4423304     23  2.750                                             
     1     27.2116520     23  2.750                                             
  local pseudopotential read in
  partial core-charges read in
  partial kinetic energy density read in
  atomic valenz-charges read in
  non local Contribution for L=           2  read in
    real space projection operators read in
  non local Contribution for L=           2  read in
    real space projection operators read in
  non local Contribution for L=           0  read in
    real space projection operators read in
  non local Contribution for L=           0  read in
    real space projection operators read in
  non local Contribution for L=           1  read in
    real space projection operators read in
  non local Contribution for L=           1  read in
    real space projection operators read in
    PAW grid and wavefunctions read in
 
   number of l-projection  operators is LMAX  =           6
   number of lm-projection operators is LMMAX =          18
 
 POTCAR:    PAW_PBE O 08Apr2002                   
   VRHFIN =O: s2p4                                                              
   LEXCH  = PE                                                                  
   EATOM  =   432.3788 eV,   31.7789 Ry                                         
                                                                                
   TITEL  = PAW_PBE O 08Apr2002                                                 
   LULTRA =        F    use ultrasoft PP ?                                      
   IUNSCR =        1    unscreen: 0-lin 1-nonlin 2-no                           
   RPACOR =    1.200    partial core radius                                     
   POMASS =   16.000; ZVAL   =    6.000    mass and valenz                      
   RCORE  =    1.520    outmost cutoff radius                                   
   RWIGS  =    1.550; RWIGS  =    0.820    wigner-seitz radius (au A)           
   ENMAX  =  400.000; ENMIN  =  300.000 eV                                      
   ICORE  =        2    local potential                                         
   LCOR   =        T    correct aug charges                                     
   LPAW   =        T    paw PP                                                  
   EAUG   =  605.392                                                            
   DEXC   =    0.000                                                            
   RMAX   =    1.553    core radius for proj-oper                               
   RAUG   =    1.300    factor for augmentation sphere                          
   RDEP   =    1.550    radius for radial grids                                 
   RDEPT  =    1.329    core radius for aug-charge                              
                                                                                
   Atomic configuration                                                         
    4 entries                                                                   
     n  l   j            E        occ.                                          
     1  0  0.50      -514.6923   2.0000                                         
     2  0  0.50       -23.9615   2.0000                                         
     2  1  0.50        -9.0305   4.0000                                         
     3  2  1.50        -9.5241   0.0000                                         
   Description                                                                  
     l       E           TYP  RCUT    TYP  RCUT                                 
     0    -23.9615318     23  1.200                                             
     0     -9.5240782     23  1.200                                             
     1     -9.0304911     23  1.520                                             
     1      8.1634956     23  1.520                                             
     2     -9.5240782      7  1.500                                             
  local pseudopotential read in
  partial core-charges read in
  partial kinetic energy density read in
  kinetic energy density of atom read in
  atomic valenz-charges read in
  non local Contribution for L=           0  read in
    real space projection operators read in
  non local Contribution for L=           0  read in
    real space projection operators read in
  non local Contribution for L=           1  read in
    real space projection operators read in
  non local Contribution for L=           1  read in
    real space projection operators read in
    PAW grid and wavefunctions read in
 
   number of l-projection  operators is LMAX  =           4
   number of lm-projection operators is LMMAX =           8
 
 Optimization of the real space projectors (new method)

 maximal supplied QI-value         = 13.61
 optimisation between [QCUT,QGAM] = [ 12.52, 25.04] = [ 43.88,175.51] Ry 
 Optimized for a Real-space Cutoff    1.56 Angstroem

   l    n(q)    QCUT    max X(q) W(low)/X(q) W(high)/X(q)  e(spline) 
   2     11    12.518    80.908    0.42E-03    0.30E-03    0.14E-05
   2     11    12.518    79.000    0.42E-03    0.30E-03    0.14E-05
   0     12    12.518    52.066    0.58E-04    0.50E-04    0.55E-06
   0     12    12.518    24.514    0.48E-04    0.41E-04    0.46E-06
   1     11    12.518    16.033    0.62E-04    0.13E-03    0.37E-06
   1     11    12.518    11.179    0.47E-04    0.10E-03    0.31E-06
 Optimization of the real space projectors (new method)

 maximal supplied QI-value         = 24.76
 optimisation between [QCUT,QGAM] = [ 12.38, 25.00] = [ 42.90,175.06] Ry 
 Optimized for a Real-space Cutoff    1.13 Angstroem

   l    n(q)    QCUT    max X(q) W(low)/X(q) W(high)/X(q)  e(spline) 
   0      8    12.378    20.381    0.16E-03    0.54E-05    0.27E-06
   0      8    12.378    15.268    0.17E-03    0.61E-05    0.29E-06
   1      8    12.378     5.964    0.38E-03    0.23E-03    0.28E-06
   1      8    12.378     5.382    0.33E-03    0.20E-03    0.25E-06
  PAW_PBE Mo 08Apr2002                  :
 energy of atom  1       EATOM= -217.5176
 kinetic energy error for atom=    0.0005 (will be added to EATOM!!)
  PAW_PBE O 08Apr2002                   :
 energy of atom  2       EATOM= -432.3788
 kinetic energy error for atom=    0.0168 (will be added to EATOM!!)
 
 
 POSCAR: Mo  O                                   
  positions in cartesian coordinates
  No initial velocities read in
 exchange correlation table for  LEXCH =        8
   RHO(1)=    0.500       N(1)  =     2000
   RHO(2)=  100.500       N(2)  =     4000

 VTST: version 3.1, (03/28/14)

 CHAIN: initializing optimizer
 
 OPT: Using VASP Dynamics algorithm
 CHAIN: Read ICHAIN            0
 
 POSCAR: Mo  O                                   
  positions in cartesian coordinates
  No initial velocities read in
 


--------------------------------------------------------------------------------------------------------


 ion  position               nearest neighbor table
   1  0.269  0.492  0.483-   9 1.98  10 1.99   8 1.99  12 2.00   7 2.08   5 2.08   3 2.49   3 3.11

   2  0.731  0.992  0.017-  10 1.98   9 1.99   7 1.99  11 2.00   8 2.08   6 2.08   4 2.49   4 3.11

   3  0.731  0.508  0.517-  11 1.98  12 1.99   6 1.99  10 2.00   5 2.08   7 2.08   1 2.49   1 3.11

   4  0.269  0.008  0.983-  12 1.98  11 1.99   5 1.99   9 2.00   6 2.08   8 2.08   2 2.49   2 3.11

   5  0.109  0.303  0.702-   4 1.99   3 2.08   1 2.08
   6  0.891  0.803  0.798-   3 1.99   4 2.08   2 2.08
   7  0.891  0.697  0.298-   2 1.99   1 2.08   3 2.08
   8  0.109  0.197  0.202-   1 1.99   2 2.08   4 2.08
   9  0.388  0.782  0.765-   1 1.98   2 1.99   4 2.00
  10  0.612  0.282  0.735-   2 1.98   1 1.99   3 2.00
  11  0.612  0.218  0.235-   3 1.98   4 1.99   2 2.00
  12  0.388  0.718  0.265-   4 1.98   3 1.99   1 2.00
 
  LATTYP: Found a simple monoclinic cell.
 ALAT       =     5.6728047714
 B/A-ratio  =     0.8627641053
 C/A-ratio  =     1.7245345469
 COS(beta)  =    -0.8710351460
  
  Lattice vectors:
  
 A1 = (   2.8867966500,   0.0000000000,  -4.8833512137)
 A2 = (   0.0000000000,  -4.8942923333,   0.0000000000)
 A3 = (  -8.4731634094,   0.0000000000,   4.8899457677)


Analysis of symmetry for initial positions (statically):
=====================================================================
 Subroutine PRICEL returns:
 Original cell was already a primitive cell.
 

 Routine SETGRP: Setting up the symmetry group for a 
 simple monoclinic supercell.


 Subroutine GETGRP returns: Found  4 space group operations
 (whereof  2 operations were pure point group operations)
 out of a pool of  4 trial point group operations.


The static configuration has the point symmetry S_2 .
 The point group associated with its full space group is C_2h.


Analysis of symmetry for dynamics (positions and initial velocities):
=====================================================================
 Subroutine PRICEL returns:
 Original cell was already a primitive cell.
 

 Routine SETGRP: Setting up the symmetry group for a 
 simple monoclinic supercell.


 Subroutine GETGRP returns: Found  4 space group operations
 (whereof  2 operations were pure point group operations)
 out of a pool of  4 trial point group operations.


The dynamic configuration has the point symmetry S_2 .
 The point group associated with its full space group is C_2h.


Analysis of structural, dynamic, and magnetic symmetry:
=====================================================================
 Subroutine PRICEL returns:
 Original cell was already a primitive cell.
 

 Routine SETGRP: Setting up the symmetry group for a 
 simple monoclinic supercell.


 Subroutine GETGRP returns: Found  4 space group operations
 (whereof  2 operations were pure point group operations)
 out of a pool of  4 trial point group operations.


The magnetic configuration has the point symmetry S_2 .
 The point group associated with its full space group is C_2h.


 Subroutine INISYM returns: Found  4 space group operations
 (whereof  2 operations are pure point group operations),
 and found     1 'primitive' translations

 
 
 KPOINTS: KPOINTS created by Atomic Simulation Env

Automatic generation of k-mesh.
Space group operators:
 irot       det(A)        alpha          n_x          n_y          n_z        tau_x        tau_y        tau_z
    1     1.000000     0.000001     1.000000     0.000000     0.000000     0.000000     0.000000     0.000000
    2    -1.000000     0.000001     1.000000     0.000000     0.000000     0.000000     0.000000     0.000000
    3     1.000000   180.000000     0.000000     1.000000     0.000000     0.000000    -0.500000    -0.500000
    4    -1.000000   180.000000     0.000000     1.000000     0.000000     0.000000    -0.500000    -0.499999
 
 Subroutine IBZKPT returns following result:
 ===========================================
 
 Found    125 irreducible k-points:
 
 Following reciprocal coordinates:
            Coordinates               Weight
  0.000000  0.000000  0.000000      1.000000
  0.142857  0.000000  0.000000      2.000000
  0.285714  0.000000  0.000000      2.000000
  0.428571  0.000000  0.000000      2.000000
  0.000000  0.125000  0.000000      2.000000
  0.142857  0.125000  0.000000      4.000000
  0.285714  0.125000  0.000000      4.000000
  0.428571  0.125000  0.000000      4.000000
  0.000000  0.250000  0.000000      2.000000
  0.142857  0.250000  0.000000      4.000000
  0.285714  0.250000  0.000000      4.000000
  0.428571  0.250000  0.000000      4.000000
  0.000000  0.375000  0.000000      2.000000
  0.142857  0.375000  0.000000      4.000000
  0.285714  0.375000  0.000000      4.000000
  0.428571  0.375000  0.000000      4.000000
  0.000000  0.500000  0.000000      1.000000
  0.142857  0.500000  0.000000      2.000000
  0.285714  0.500000  0.000000      2.000000
  0.428571  0.500000  0.000000      2.000000
  0.000000  0.000000  0.142857      2.000000
  0.142857  0.000000  0.142857      2.000000
  0.285714  0.000000  0.142857      2.000000
  0.428571  0.000000  0.142857      2.000000
 -0.428571  0.000000  0.142857      2.000000
 -0.285714  0.000000  0.142857      2.000000
 -0.142857  0.000000  0.142857      2.000000
  0.000000  0.125000  0.142857      4.000000
  0.142857  0.125000  0.142857      4.000000
  0.285714  0.125000  0.142857      4.000000
  0.428571  0.125000  0.142857      4.000000
 -0.428571  0.125000  0.142857      4.000000
 -0.285714  0.125000  0.142857      4.000000
 -0.142857  0.125000  0.142857      4.000000
  0.000000  0.250000  0.142857      4.000000
  0.142857  0.250000  0.142857      4.000000
  0.285714  0.250000  0.142857      4.000000
  0.428571  0.250000  0.142857      4.000000
 -0.428571  0.250000  0.142857      4.000000
 -0.285714  0.250000  0.142857      4.000000
 -0.142857  0.250000  0.142857      4.000000
  0.000000  0.375000  0.142857      4.000000
  0.142857  0.375000  0.142857      4.000000
  0.285714  0.375000  0.142857      4.000000
  0.428571  0.375000  0.142857      4.000000
 -0.428571  0.375000  0.142857      4.000000
 -0.285714  0.375000  0.142857      4.000000
 -0.142857  0.375000  0.142857      4.000000
  0.000000  0.500000  0.142857      2.000000
  0.142857  0.500000  0.142857      2.000000
  0.285714  0.500000  0.142857      2.000000
  0.428571  0.500000  0.142857      2.000000
 -0.428571  0.500000  0.142857      2.000000
 -0.285714  0.500000  0.142857      2.000000
 -0.142857  0.500000  0.142857      2.000000
  0.000000  0.000000  0.285714      2.000000
  0.142857  0.000000  0.285714      2.000000
  0.285714  0.000000  0.285714      2.000000
  0.428571  0.000000  0.285714      2.000000
 -0.428571  0.000000  0.285714      2.000000
 -0.285714  0.000000  0.285714      2.000000
 -0.142857  0.000000  0.285714      2.000000
  0.000000  0.125000  0.285714      4.000000
  0.142857  0.125000  0.285714      4.000000
  0.285714  0.125000  0.285714      4.000000
  0.428571  0.125000  0.285714      4.000000
 -0.428571  0.125000  0.285714      4.000000
 -0.285714  0.125000  0.285714      4.000000
 -0.142857  0.125000  0.285714      4.000000
  0.000000  0.250000  0.285714      4.000000
  0.142857  0.250000  0.285714      4.000000
  0.285714  0.250000  0.285714      4.000000
  0.428571  0.250000  0.285714      4.000000
 -0.428571  0.250000  0.285714      4.000000
 -0.285714  0.250000  0.285714      4.000000
 -0.142857  0.250000  0.285714      4.000000
  0.000000  0.375000  0.285714      4.000000
  0.142857  0.375000  0.285714      4.000000
  0.285714  0.375000  0.285714      4.000000
  0.428571  0.375000  0.285714      4.000000
 -0.428571  0.375000  0.285714      4.000000
 -0.285714  0.375000  0.285714      4.000000
 -0.142857  0.375000  0.285714      4.000000
  0.000000  0.500000  0.285714      2.000000
  0.142857  0.500000  0.285714      2.000000
  0.285714  0.500000  0.285714      2.000000
  0.428571  0.500000  0.285714      2.000000
 -0.428571  0.500000  0.285714      2.000000
 -0.285714  0.500000  0.285714      2.000000
 -0.142857  0.500000  0.285714      2.000000
  0.000000  0.000000  0.428571      2.000000
  0.142857  0.000000  0.428571      2.000000
  0.285714  0.000000  0.428571      2.000000
  0.428571  0.000000  0.428571      2.000000
 -0.428571  0.000000  0.428571      2.000000
 -0.285714  0.000000  0.428571      2.000000
 -0.142857  0.000000  0.428571      2.000000
  0.000000  0.125000  0.428571      4.000000
  0.142857  0.125000  0.428571      4.000000
  0.285714  0.125000  0.428571      4.000000
  0.428571  0.125000  0.428571      4.000000
 -0.428571  0.125000  0.428571      4.000000
 -0.285714  0.125000  0.428571      4.000000
 -0.142857  0.125000  0.428571      4.000000
  0.000000  0.250000  0.428571      4.000000
  0.142857  0.250000  0.428571      4.000000
  0.285714  0.250000  0.428571      4.000000
  0.428571  0.250000  0.428571      4.000000
 -0.428571  0.250000  0.428571      4.000000
 -0.285714  0.250000  0.428571      4.000000
 -0.142857  0.250000  0.428571      4.000000
  0.000000  0.375000  0.428571      4.000000
  0.142857  0.375000  0.428571      4.000000
  0.285714  0.375000  0.428571      4.000000
  0.428571  0.375000  0.428571      4.000000
 -0.428571  0.375000  0.428571      4.000000
 -0.285714  0.375000  0.428571      4.000000
 -0.142857  0.375000  0.428571      4.000000
  0.000000  0.500000  0.428571      2.000000
  0.142857  0.500000  0.428571      2.000000
  0.285714  0.500000  0.428571      2.000000
  0.428571  0.500000  0.428571      2.000000
 -0.428571  0.500000  0.428571      2.000000
 -0.285714  0.500000  0.428571      2.000000
 -0.142857  0.500000  0.428571      2.000000
 
 Following cartesian coordinates:
            Coordinates               Weight
  0.000000  0.000000  0.000000      1.000000
  0.025590  0.000000  0.015128      2.000000
  0.051181  0.000000  0.030255      2.000000
  0.076771  0.000000  0.045383      2.000000
  0.000000  0.025540  0.000000      2.000000
  0.025590  0.025540  0.015128      4.000000
  0.051181  0.025540  0.030255      4.000000
  0.076771  0.025540  0.045383      4.000000
  0.000000  0.051080  0.000000      2.000000
  0.025590  0.051080  0.015128      4.000000
  0.051181  0.051080  0.030255      4.000000
  0.076771  0.051080  0.045383      4.000000
  0.000000  0.076620  0.000000      2.000000
  0.025590  0.076620  0.015128      4.000000
  0.051181  0.076620  0.030255      4.000000
  0.076771  0.076620  0.045383      4.000000
  0.000000  0.102160  0.000000      1.000000
  0.025590  0.102160  0.015128      2.000000
  0.051181  0.102160  0.030255      2.000000
  0.076771  0.102160  0.045383      2.000000
  0.000035  0.000000  0.029274      2.000000
  0.025625  0.000000  0.044402      2.000000
  0.051215  0.000000  0.059530      2.000000
  0.076806  0.000000  0.074658      2.000000
 -0.076736  0.000000 -0.016109      2.000000
 -0.051146  0.000000 -0.000981      2.000000
 -0.025556  0.000000  0.014147      2.000000
  0.000035  0.025540  0.029274      4.000000
  0.025625  0.025540  0.044402      4.000000
  0.051215  0.025540  0.059530      4.000000
  0.076806  0.025540  0.074658      4.000000
 -0.076736  0.025540 -0.016109      4.000000
 -0.051146  0.025540 -0.000981      4.000000
 -0.025556  0.025540  0.014147      4.000000
  0.000035  0.051080  0.029274      4.000000
  0.025625  0.051080  0.044402      4.000000
  0.051215  0.051080  0.059530      4.000000
  0.076806  0.051080  0.074658      4.000000
 -0.076736  0.051080 -0.016109      4.000000
 -0.051146  0.051080 -0.000981      4.000000
 -0.025556  0.051080  0.014147      4.000000
  0.000035  0.076620  0.029274      4.000000
  0.025625  0.076620  0.044402      4.000000
  0.051215  0.076620  0.059530      4.000000
  0.076806  0.076620  0.074658      4.000000
 -0.076736  0.076620 -0.016109      4.000000
 -0.051146  0.076620 -0.000981      4.000000
 -0.025556  0.076620  0.014147      4.000000
  0.000035  0.102160  0.029274      2.000000
  0.025625  0.102160  0.044402      2.000000
  0.051215  0.102160  0.059530      2.000000
  0.076806  0.102160  0.074658      2.000000
 -0.076736  0.102160 -0.016109      2.000000
 -0.051146  0.102160 -0.000981      2.000000
 -0.025556  0.102160  0.014147      2.000000
  0.000069  0.000000  0.058549      2.000000
  0.025659  0.000000  0.073676      2.000000
  0.051250  0.000000  0.088804      2.000000
  0.076840  0.000000  0.103932      2.000000
 -0.076702  0.000000  0.013165      2.000000
 -0.051112  0.000000  0.028293      2.000000
 -0.025521  0.000000  0.043421      2.000000
  0.000069  0.025540  0.058549      4.000000
  0.025659  0.025540  0.073676      4.000000
  0.051250  0.025540  0.088804      4.000000
  0.076840  0.025540  0.103932      4.000000
 -0.076702  0.025540  0.013165      4.000000
 -0.051112  0.025540  0.028293      4.000000
 -0.025521  0.025540  0.043421      4.000000
  0.000069  0.051080  0.058549      4.000000
  0.025659  0.051080  0.073676      4.000000
  0.051250  0.051080  0.088804      4.000000
  0.076840  0.051080  0.103932      4.000000
 -0.076702  0.051080  0.013165      4.000000
 -0.051112  0.051080  0.028293      4.000000
 -0.025521  0.051080  0.043421      4.000000
  0.000069  0.076620  0.058549      4.000000
  0.025659  0.076620  0.073676      4.000000
  0.051250  0.076620  0.088804      4.000000
  0.076840  0.076620  0.103932      4.000000
 -0.076702  0.076620  0.013165      4.000000
 -0.051112  0.076620  0.028293      4.000000
 -0.025521  0.076620  0.043421      4.000000
  0.000069  0.102160  0.058549      2.000000
  0.025659  0.102160  0.073676      2.000000
  0.051250  0.102160  0.088804      2.000000
  0.076840  0.102160  0.103932      2.000000
 -0.076702  0.102160  0.013165      2.000000
 -0.051112  0.102160  0.028293      2.000000
 -0.025521  0.102160  0.043421      2.000000
  0.000104  0.000000  0.087823      2.000000
  0.025694  0.000000  0.102951      2.000000
  0.051284  0.000000  0.118079      2.000000
  0.076875  0.000000  0.133206      2.000000
 -0.076667  0.000000  0.042440      2.000000
 -0.051077  0.000000  0.057568      2.000000
 -0.025487  0.000000  0.072695      2.000000
  0.000104  0.025540  0.087823      4.000000
  0.025694  0.025540  0.102951      4.000000
  0.051284  0.025540  0.118079      4.000000
  0.076875  0.025540  0.133206      4.000000
 -0.076667  0.025540  0.042440      4.000000
 -0.051077  0.025540  0.057568      4.000000
 -0.025487  0.025540  0.072695      4.000000
  0.000104  0.051080  0.087823      4.000000
  0.025694  0.051080  0.102951      4.000000
  0.051284  0.051080  0.118079      4.000000
  0.076875  0.051080  0.133206      4.000000
 -0.076667  0.051080  0.042440      4.000000
 -0.051077  0.051080  0.057568      4.000000
 -0.025487  0.051080  0.072695      4.000000
  0.000104  0.076620  0.087823      4.000000
  0.025694  0.076620  0.102951      4.000000
  0.051284  0.076620  0.118079      4.000000
  0.076875  0.076620  0.133206      4.000000
 -0.076667  0.076620  0.042440      4.000000
 -0.051077  0.076620  0.057568      4.000000
 -0.025487  0.076620  0.072695      4.000000
  0.000104  0.102160  0.087823      2.000000
  0.025694  0.102160  0.102951      2.000000
  0.051284  0.102160  0.118079      2.000000
  0.076875  0.102160  0.133206      2.000000
 -0.076667  0.102160  0.042440      2.000000
 -0.051077  0.102160  0.057568      2.000000
 -0.025487  0.102160  0.072695      2.000000
 
 TETIRR: Found   1164 inequivalent tetrahedra from     2352

 ----------------------------------------------------------------------------- 
|                                                                             |
|           W    W    AA    RRRRR   N    N  II  N    N   GGGG   !!!           |
|           W    W   A  A   R    R  NN   N  II  NN   N  G    G  !!!           |
|           W    W  A    A  R    R  N N  N  II  N N  N  G       !!!           |
|           W WW W  AAAAAA  RRRRR   N  N N  II  N  N N  G  GGG   !            |
|           WW  WW  A    A  R   R   N   NN  II  N   NN  G    G                |
|           W    W  A    A  R    R  N    N  II  N    N   GGGG   !!!           |
|                                                                             |
|      The number of bands has been changed from the values supplied          |
|      in the INCAR file. This is a result of running the parallel version.   |
|      The orbitals not found in the WAVECAR file will be initialized with    |
|      random numbers, which is usually adequate. For correlated              |
|      calculations, however, you should redo the groundstate calculation.    |
|      I found NBANDS    =       92  now  NBANDS  =      96                   |
|                                                                             |
 ----------------------------------------------------------------------------- 



--------------------------------------------------------------------------------------------------------




 Dimension of arrays:
   k-points           NKPTS =    125   k-points in BZ     NKDIM =    125   number of bands    NBANDS=     96
   number of dos      NEDOS =   3000   number of ions     NIONS =     12
   non local maximal  LDIM  =      6   non local SUM 2l+1 LMDIM =     18
   total plane-waves  NPLWV =  38880
   max r-space proj   IRMAX =   4686   max aug-charges    IRDMAX=  18907
   dimension x,y,z NGX =    36 NGY =   30 NGZ =   36
   dimension x,y,z NGXF=    72 NGYF=   60 NGZF=   72
   support grid    NGXF=    72 NGYF=   60 NGZF=   72
   ions per type =               4   8
 NGX,Y,Z   is equivalent  to a cutoff of  10.71, 10.19, 10.55 a.u.
 NGXF,Y,Z  is equivalent  to a cutoff of  21.43, 20.38, 21.10 a.u.


 I would recommend the setting:
   dimension x,y,z NGX =    33 NGY =   29 NGZ =   34
 SYSTEM =  unknown system                          
 POSCAR =  Mo  O                                   

 Startparameter for this run:
   NWRITE =      2    write-flag & timer
   PREC   = normal    normal or accurate (medium, high low for compatibility)
   ISTART =      1    job   : 0-new  1-cont  2-samecut
   ICHARG =     11    charge: 1-file 2-atom 10-const
   ISPIN  =      2    spin polarized calculation?
   LNONCOLLINEAR =      F non collinear calculations
   LSORBIT =      F    spin-orbit coupling
   INIWAV =      1    electr: 0-lowe 1-rand  2-diag
   LASPH  =      F    aspherical Exc in radial PAW
   METAGGA=      F    non-selfconsistent MetaGGA calc.

 Electronic Relaxation 1
   ENCUT  =  600.0 eV  44.10 Ry    6.64 a.u.  11.16  9.78 11.33*2*pi/ulx,y,z
   ENINI  =  600.0     initial cutoff
   ENAUG  =  605.4 eV  augmentation charge cutoff
   NELM   =     60;   NELMIN=  2; NELMDL=  0     # of ELM steps 
   EDIFF  = 0.1E-05   stopping-criterion for ELM
   LREAL  =      T    real-space projection
   NLSPLINE    = F    spline interpolate recip. space projectors
   LCOMPAT=      F    compatible to vasp.4.4
   GGA_COMPAT  = T    GGA compatible to vasp.4.4-vasp.4.6
   LMAXPAW     = -100 max onsite density
   LMAXMIX     =    2 max onsite mixed and CHGCAR
   VOSKOWN=      0    Vosko Wilk Nusair interpolation
   ROPT   =   -0.00050  -0.00050
 Ionic relaxation
   EDIFFG = 0.1E-04   stopping-criterion for IOM
   NSW    =      0    number of steps for IOM
   NBLOCK =      1;   KBLOCK =      1    inner block; outer block 
   IBRION =     -1    ionic relax: 0-MD 1-quasi-New 2-CG
   NFREE  =      0    steps in history (QN), initial steepest desc. (CG)
   ISIF   =      2    stress and relaxation
   IWAVPR =     10    prediction:  0-non 1-charg 2-wave 3-comb
   ISYM   =      2    0-nonsym 1-usesym 2-fastsym
   LCORR  =      T    Harris-Foulkes like correction to forces

   POTIM  = 0.5000    time-step for ionic-motion
   TEIN   =    0.0    initial temperature
   TEBEG  =    0.0;   TEEND  =   0.0 temperature during run
   SMASS  =  -3.00    Nose mass-parameter (am)
   estimated Nose-frequenzy (Omega)   =  0.10E-29 period in steps =****** mass=  -0.713E-27a.u.
   SCALEE = 1.0000    scale energy and forces
   NPACO  =    256;   APACO  = 16.0  distance and # of slots for P.C.
   PSTRESS=    0.0 pullay stress

  Mass of Ions in am
   POMASS =  95.94 16.00
  Ionic Valenz
   ZVAL   =   6.00  6.00
  Atomic Wigner-Seitz radii
   RWIGS  =  -1.00 -1.00
  virtual crystal weights 
   VCA    =   1.00  1.00
   NELECT =      72.0000    total number of electrons
   NUPDOWN=      -1.0000    fix difference up-down

 DOS related values:
   EMIN   = -20.00;   EMAX   = 15.00  energy-range for DOS
   EFERMI =   0.00
   ISMEAR =    -5;   SIGMA  =   0.03  broadening in eV -4-tet -1-fermi 0-gaus

 Electronic relaxation 2 (details)
   IALGO  =     48    algorithm
   LDIAG  =      T    sub-space diagonalisation (order eigenvalues)
   LSUBROT=      F    optimize rotation matrix (better conditioning)
   TURBO    =      0    0=normal 1=particle mesh
   IRESTART =      0    0=no restart 2=restart with 2 vectors
   NREBOOT  =      0    no. of reboots
   NMIN     =      0    reboot dimension
   EREF     =   0.00    reference energy to select bands
   IMIX   =      4    mixing-type and parameters
     AMIX     =   0.40;   BMIX     =  1.00
     AMIX_MAG =   1.60;   BMIX_MAG =  1.00
     AMIN     =   0.10
     WC   =   100.;   INIMIX=   1;  MIXPRE=   1;  MAXMIX= -45

 Intra band minimization:
   WEIMIN = 0.0000     energy-eigenvalue tresh-hold
   EBREAK =  0.26E-08  absolut break condition
   DEPER  =   0.30     relativ break condition  

   TIME   =   0.40     timestep for ELM

  volume/ion in A,a.u.               =      11.12        75.03
  Fermi-wavevector in a.u.,A,eV,Ry     =   1.332829  2.518681 24.169824  1.776432
  Thomas-Fermi vector in A             =   2.461734
 
 Write flags
   LWAVE  =      F    write WAVECAR
   LCHARG =      F    write CHGCAR
   LVTOT  =      F    write LOCPOT, total local potential
   LVHAR  =      F    write LOCPOT, Hartree potential only
   LELF   =      F    write electronic localiz. function (ELF)
   LORBIT =     11    0 simple, 1 ext, 2 COOP (PROOUT)


 Dipole corrections
   LMONO  =      F    monopole corrections only (constant potential shift)
   LDIPOL =      F    correct potential (dipole corrections)
   IDIPOL =      0    1-x, 2-y, 3-z, 4-all directions 
   EPSILON=  1.0000000 bulk dielectric constant

 Exchange correlation treatment:
   GGA     =    PE    GGA type
   LEXCH   =     8    internal setting for exchange type
   VOSKOWN=      0    Vosko Wilk Nusair interpolation
   LHFCALC =     F    Hartree Fock is set to
   LHFONE  =     F    Hartree Fock one center treatment
   AEXX    =    0.0000 exact exchange contribution

 Linear response parameters
   LEPSILON=     F    determine dielectric tensor
   LRPA    =     F    only Hartree local field effects (RPA)
   LNABLA  =     F    use nabla operator in PAW spheres
   LVEL    =     F    velocity operator in full k-point grid
   LINTERFAST=   F  fast interpolation
   KINTER  =     0    interpolate to denser k-point grid
   CSHIFT  =0.1000    complex shift for real part using Kramers Kronig
   OMEGAMAX=  -1.0    maximum frequency
   DEG_THRESHOLD= 0.2000000E-02 threshold for treating states as degnerate
   RTIME   =    0.100 relaxation time in fs

 Orbital magnetization related:
   ORBITALMAG=     F  switch on orbital magnetization
   LCHIMAG   =     F  perturbation theory with respect to B field
   DQ        =  0.001000  dq finite difference perturbation B field



--------------------------------------------------------------------------------------------------------


 Static calculation
 charge density and potential remain constant during run
 spin polarized calculation
 RMM-DIIS sequential band-by-band
 perform sub-space diagonalisation
    before iterative eigenvector-optimisation
 no mixing
 using additional bands           60
 real space projection scheme for non local part
 use partial core corrections
 calculate Harris-corrections to forces 
   (improved forces if not selfconsistent)
 use gradient corrections 
 WARNING: stress and forces are not correct
  (second derivative of E(xc) not defined)
 use of overlap-Matrix (Vanderbilt PP)
 Fermi weights with tetrahedron method with Bloechl corrections


--------------------------------------------------------------------------------------------------------


  energy-cutoff  :      600.00
  volume of cell :      133.42
      direct lattice vectors                 reciprocal lattice vectors
     5.586366759  0.000000000 -0.006594554     0.179132228  0.000000000  0.105894148
     0.000000000  4.894292333  0.000000000     0.000000000  0.204319630  0.000000000
    -2.886796650  0.000000000  4.883351214     0.000241903  0.000000000  0.204920408

  length of vectors
     5.586370652  4.894292333  5.672804771     0.208091148  0.204319630  0.204920551


 
 old parameters found on file WAVECAR:
  energy-cutoff  :      600.00
  volume of cell :      133.42
      direct lattice vectors                 reciprocal lattice vectors
     5.586366759  0.000000000 -0.006594554     0.179132228  0.000000000  0.105894148
     0.000000000  4.894292333  0.000000000     0.000000000  0.204319630  0.000000000
    -2.886796650  0.000000000  4.883351214     0.000241903  0.000000000  0.204920408

  length of vectors

 
 k-points in units of 2pi/SCALE and weight: KPOINTS created by Atomic Simulation Env
   0.00000000  0.00000000  0.00000000       0.003
   0.02559032  0.00000000  0.01512774       0.005
   0.05118064  0.00000000  0.03025547       0.005
   0.07677095  0.00000000  0.04538321       0.005
   0.00000000  0.02553995  0.00000000       0.005
   0.02559032  0.02553995  0.01512774       0.010
   0.05118064  0.02553995  0.03025547       0.010
   0.07677095  0.02553995  0.04538321       0.010
   0.00000000  0.05107991  0.00000000       0.005
   0.02559032  0.05107991  0.01512774       0.010
   0.05118064  0.05107991  0.03025547       0.010
   0.07677095  0.05107991  0.04538321       0.010
   0.00000000  0.07661986  0.00000000       0.005
   0.02559032  0.07661986  0.01512774       0.010
   0.05118064  0.07661986  0.03025547       0.010
   0.07677095  0.07661986  0.04538321       0.010
   0.00000000  0.10215982  0.00000000       0.003
   0.02559032  0.10215982  0.01512774       0.005
   0.05118064  0.10215982  0.03025547       0.005
   0.07677095  0.10215982  0.04538321       0.005
   0.00003456  0.00000000  0.02927434       0.005
   0.02562488  0.00000000  0.04440208       0.005
   0.05121519  0.00000000  0.05952981       0.005
   0.07680551  0.00000000  0.07465755       0.005
  -0.07673640  0.00000000 -0.01610886       0.005
  -0.05114608  0.00000000 -0.00098113       0.005
  -0.02555576  0.00000000  0.01414661       0.005
   0.00003456  0.02553995  0.02927434       0.010
   0.02562488  0.02553995  0.04440208       0.010
   0.05121519  0.02553995  0.05952981       0.010
   0.07680551  0.02553995  0.07465755       0.010
  -0.07673640  0.02553995 -0.01610886       0.010
  -0.05114608  0.02553995 -0.00098113       0.010
  -0.02555576  0.02553995  0.01414661       0.010
   0.00003456  0.05107991  0.02927434       0.010
   0.02562488  0.05107991  0.04440208       0.010
   0.05121519  0.05107991  0.05952981       0.010
   0.07680551  0.05107991  0.07465755       0.010
  -0.07673640  0.05107991 -0.01610886       0.010
  -0.05114608  0.05107991 -0.00098113       0.010
  -0.02555576  0.05107991  0.01414661       0.010
   0.00003456  0.07661986  0.02927434       0.010
   0.02562488  0.07661986  0.04440208       0.010
   0.05121519  0.07661986  0.05952981       0.010
   0.07680551  0.07661986  0.07465755       0.010
  -0.07673640  0.07661986 -0.01610886       0.010
  -0.05114608  0.07661986 -0.00098113       0.010
  -0.02555576  0.07661986  0.01414661       0.010
   0.00003456  0.10215982  0.02927434       0.005
   0.02562488  0.10215982  0.04440208       0.005
   0.05121519  0.10215982  0.05952981       0.005
   0.07680551  0.10215982  0.07465755       0.005
  -0.07673640  0.10215982 -0.01610886       0.005
  -0.05114608  0.10215982 -0.00098113       0.005
  -0.02555576  0.10215982  0.01414661       0.005
   0.00006912  0.00000000  0.05854869       0.005
   0.02565943  0.00000000  0.07367642       0.005
   0.05124975  0.00000000  0.08880416       0.005
   0.07684007  0.00000000  0.10393189       0.005
  -0.07670184  0.00000000  0.01316548       0.005
  -0.05111152  0.00000000  0.02829322       0.005
  -0.02552120  0.00000000  0.04342095       0.005
   0.00006912  0.02553995  0.05854869       0.010
   0.02565943  0.02553995  0.07367642       0.010
   0.05124975  0.02553995  0.08880416       0.010
   0.07684007  0.02553995  0.10393189       0.010
  -0.07670184  0.02553995  0.01316548       0.010
  -0.05111152  0.02553995  0.02829322       0.010
  -0.02552120  0.02553995  0.04342095       0.010
   0.00006912  0.05107991  0.05854869       0.010
   0.02565943  0.05107991  0.07367642       0.010
   0.05124975  0.05107991  0.08880416       0.010
   0.07684007  0.05107991  0.10393189       0.010
  -0.07670184  0.05107991  0.01316548       0.010
  -0.05111152  0.05107991  0.02829322       0.010
  -0.02552120  0.05107991  0.04342095       0.010
   0.00006912  0.07661986  0.05854869       0.010
   0.02565943  0.07661986  0.07367642       0.010
   0.05124975  0.07661986  0.08880416       0.010
   0.07684007  0.07661986  0.10393189       0.010
  -0.07670184  0.07661986  0.01316548       0.010
  -0.05111152  0.07661986  0.02829322       0.010
  -0.02552120  0.07661986  0.04342095       0.010
   0.00006912  0.10215982  0.05854869       0.005
   0.02565943  0.10215982  0.07367642       0.005
   0.05124975  0.10215982  0.08880416       0.005
   0.07684007  0.10215982  0.10393189       0.005
  -0.07670184  0.10215982  0.01316548       0.005
  -0.05111152  0.10215982  0.02829322       0.005
  -0.02552120  0.10215982  0.04342095       0.005
   0.00010367  0.00000000  0.08782303       0.005
   0.02569399  0.00000000  0.10295077       0.005
   0.05128431  0.00000000  0.11807850       0.005
   0.07687463  0.00000000  0.13320624       0.005
  -0.07666728  0.00000000  0.04243983       0.005
  -0.05107696  0.00000000  0.05756756       0.005
  -0.02548665  0.00000000  0.07269530       0.005
   0.00010367  0.02553995  0.08782303       0.010
   0.02569399  0.02553995  0.10295077       0.010
   0.05128431  0.02553995  0.11807850       0.010
   0.07687463  0.02553995  0.13320624       0.010
  -0.07666728  0.02553995  0.04243983       0.010
  -0.05107696  0.02553995  0.05756756       0.010
  -0.02548665  0.02553995  0.07269530       0.010
   0.00010367  0.05107991  0.08782303       0.010
   0.02569399  0.05107991  0.10295077       0.010
   0.05128431  0.05107991  0.11807850       0.010
   0.07687463  0.05107991  0.13320624       0.010
  -0.07666728  0.05107991  0.04243983       0.010
  -0.05107696  0.05107991  0.05756756       0.010
  -0.02548665  0.05107991  0.07269530       0.010
   0.00010367  0.07661986  0.08782303       0.010
   0.02569399  0.07661986  0.10295077       0.010
   0.05128431  0.07661986  0.11807850       0.010
   0.07687463  0.07661986  0.13320624       0.010
  -0.07666728  0.07661986  0.04243983       0.010
  -0.05107696  0.07661986  0.05756756       0.010
  -0.02548665  0.07661986  0.07269530       0.010
   0.00010367  0.10215982  0.08782303       0.005
   0.02569399  0.10215982  0.10295077       0.005
   0.05128431  0.10215982  0.11807850       0.005
   0.07687463  0.10215982  0.13320624       0.005
  -0.07666728  0.10215982  0.04243983       0.005
  -0.05107696  0.10215982  0.05756756       0.005
  -0.02548665  0.10215982  0.07269530       0.005
 
 k-points in reciprocal lattice and weights: KPOINTS created by Atomic Simulation Env
   0.00000000  0.00000000  0.00000000       0.003
   0.14285714  0.00000000  0.00000000       0.005
   0.28571429  0.00000000  0.00000000       0.005
   0.42857143  0.00000000  0.00000000       0.005
   0.00000000  0.12500000  0.00000000       0.005
   0.14285714  0.12500000  0.00000000       0.010
   0.28571429  0.12500000  0.00000000       0.010
   0.42857143  0.12500000  0.00000000       0.010
   0.00000000  0.25000000  0.00000000       0.005
   0.14285714  0.25000000  0.00000000       0.010
   0.28571429  0.25000000  0.00000000       0.010
   0.42857143  0.25000000  0.00000000       0.010
   0.00000000  0.37500000  0.00000000       0.005
   0.14285714  0.37500000  0.00000000       0.010
   0.28571429  0.37500000  0.00000000       0.010
   0.42857143  0.37500000  0.00000000       0.010
   0.00000000  0.50000000  0.00000000       0.003
   0.14285714  0.50000000  0.00000000       0.005
   0.28571429  0.50000000  0.00000000       0.005
   0.42857143  0.50000000  0.00000000       0.005
   0.00000000  0.00000000  0.14285714       0.005
   0.14285714  0.00000000  0.14285714       0.005
   0.28571429  0.00000000  0.14285714       0.005
   0.42857143  0.00000000  0.14285714       0.005
  -0.42857143  0.00000000  0.14285714       0.005
  -0.28571429  0.00000000  0.14285714       0.005
  -0.14285714  0.00000000  0.14285714       0.005
   0.00000000  0.12500000  0.14285714       0.010
   0.14285714  0.12500000  0.14285714       0.010
   0.28571429  0.12500000  0.14285714       0.010
   0.42857143  0.12500000  0.14285714       0.010
  -0.42857143  0.12500000  0.14285714       0.010
  -0.28571429  0.12500000  0.14285714       0.010
  -0.14285714  0.12500000  0.14285714       0.010
   0.00000000  0.25000000  0.14285714       0.010
   0.14285714  0.25000000  0.14285714       0.010
   0.28571429  0.25000000  0.14285714       0.010
   0.42857143  0.25000000  0.14285714       0.010
  -0.42857143  0.25000000  0.14285714       0.010
  -0.28571429  0.25000000  0.14285714       0.010
  -0.14285714  0.25000000  0.14285714       0.010
   0.00000000  0.37500000  0.14285714       0.010
   0.14285714  0.37500000  0.14285714       0.010
   0.28571429  0.37500000  0.14285714       0.010
   0.42857143  0.37500000  0.14285714       0.010
  -0.42857143  0.37500000  0.14285714       0.010
  -0.28571429  0.37500000  0.14285714       0.010
  -0.14285714  0.37500000  0.14285714       0.010
   0.00000000  0.50000000  0.14285714       0.005
   0.14285714  0.50000000  0.14285714       0.005
   0.28571429  0.50000000  0.14285714       0.005
   0.42857143  0.50000000  0.14285714       0.005
  -0.42857143  0.50000000  0.14285714       0.005
  -0.28571429  0.50000000  0.14285714       0.005
  -0.14285714  0.50000000  0.14285714       0.005
   0.00000000  0.00000000  0.28571429       0.005
   0.14285714  0.00000000  0.28571429       0.005
   0.28571429  0.00000000  0.28571429       0.005
   0.42857143  0.00000000  0.28571429       0.005
  -0.42857143  0.00000000  0.28571429       0.005
  -0.28571429  0.00000000  0.28571429       0.005
  -0.14285714  0.00000000  0.28571429       0.005
   0.00000000  0.12500000  0.28571429       0.010
   0.14285714  0.12500000  0.28571429       0.010
   0.28571429  0.12500000  0.28571429       0.010
   0.42857143  0.12500000  0.28571429       0.010
  -0.42857143  0.12500000  0.28571429       0.010
  -0.28571429  0.12500000  0.28571429       0.010
  -0.14285714  0.12500000  0.28571429       0.010
   0.00000000  0.25000000  0.28571429       0.010
   0.14285714  0.25000000  0.28571429       0.010
   0.28571429  0.25000000  0.28571429       0.010
   0.42857143  0.25000000  0.28571429       0.010
  -0.42857143  0.25000000  0.28571429       0.010
  -0.28571429  0.25000000  0.28571429       0.010
  -0.14285714  0.25000000  0.28571429       0.010
   0.00000000  0.37500000  0.28571429       0.010
   0.14285714  0.37500000  0.28571429       0.010
   0.28571429  0.37500000  0.28571429       0.010
   0.42857143  0.37500000  0.28571429       0.010
  -0.42857143  0.37500000  0.28571429       0.010
  -0.28571429  0.37500000  0.28571429       0.010
  -0.14285714  0.37500000  0.28571429       0.010
   0.00000000  0.50000000  0.28571429       0.005
   0.14285714  0.50000000  0.28571429       0.005
   0.28571429  0.50000000  0.28571429       0.005
   0.42857143  0.50000000  0.28571429       0.005
  -0.42857143  0.50000000  0.28571429       0.005
  -0.28571429  0.50000000  0.28571429       0.005
  -0.14285714  0.50000000  0.28571429       0.005
   0.00000000  0.00000000  0.42857143       0.005
   0.14285714  0.00000000  0.42857143       0.005
   0.28571429  0.00000000  0.42857143       0.005
   0.42857143  0.00000000  0.42857143       0.005
  -0.42857143  0.00000000  0.42857143       0.005
  -0.28571429  0.00000000  0.42857143       0.005
  -0.14285714  0.00000000  0.42857143       0.005
   0.00000000  0.12500000  0.42857143       0.010
   0.14285714  0.12500000  0.42857143       0.010
   0.28571429  0.12500000  0.42857143       0.010
   0.42857143  0.12500000  0.42857143       0.010
  -0.42857143  0.12500000  0.42857143       0.010
  -0.28571429  0.12500000  0.42857143       0.010
  -0.14285714  0.12500000  0.42857143       0.010
   0.00000000  0.25000000  0.42857143       0.010
   0.14285714  0.25000000  0.42857143       0.010
   0.28571429  0.25000000  0.42857143       0.010
   0.42857143  0.25000000  0.42857143       0.010
  -0.42857143  0.25000000  0.42857143       0.010
  -0.28571429  0.25000000  0.42857143       0.010
  -0.14285714  0.25000000  0.42857143       0.010
   0.00000000  0.37500000  0.42857143       0.010
   0.14285714  0.37500000  0.42857143       0.010
   0.28571429  0.37500000  0.42857143       0.010
   0.42857143  0.37500000  0.42857143       0.010
  -0.42857143  0.37500000  0.42857143       0.010
  -0.28571429  0.37500000  0.42857143       0.010
  -0.14285714  0.37500000  0.42857143       0.010
   0.00000000  0.50000000  0.42857143       0.005
   0.14285714  0.50000000  0.42857143       0.005
   0.28571429  0.50000000  0.42857143       0.005
   0.42857143  0.50000000  0.42857143       0.005
  -0.42857143  0.50000000  0.42857143       0.005
  -0.28571429  0.50000000  0.42857143       0.005
  -0.14285714  0.50000000  0.42857143       0.005
 
 position of ions in fractional coordinates (direct lattice) 
   0.26931800  0.49201266  0.48305986
   0.73068201  0.99201266  0.01694038
   0.73068272  0.50798734  0.51694168
   0.26931764  0.00798734  0.98305909
   0.10940866  0.30305876  0.70190903
   0.89059134  0.80305876  0.79809120
   0.89059098  0.69694124  0.29809044
   0.10940937  0.19694124  0.20191033
   0.38765396  0.78244548  0.76514236
   0.61234605  0.28244548  0.73485788
   0.61234569  0.21755452  0.23485711
   0.38765360  0.71755452  0.26514159
 
 position of ions in cartesian coordinates  (Angst):
   0.11001352  2.40805377  2.35717493
   4.03295427  4.85519994  0.07790728
   2.58955615  2.48623856  2.51958925
  -1.33338459  0.03909240  4.79884678
  -1.41507172  1.48325816  3.42694682
   2.67124286  3.93040433  3.89148660
   4.11464140  3.41103417  1.44980724
   0.02832681  0.96388800  0.98527757
  -0.04323322  3.82951692  3.73390247
   1.29940435  1.38237076  3.58453095
   2.74280290  1.06477541  1.14285158
   1.40016533  3.51192158  1.29222311
 


--------------------------------------------------------------------------------------------------------


 k-point  1 :   0.0000 0.0000 0.0000  plane waves:    4463
 k-point  2 :   0.1429 0.0000 0.0000  plane waves:    4450
 k-point  3 :   0.2857 0.0000 0.0000  plane waves:    4437
 k-point  4 :   0.4286 0.0000 0.0000  plane waves:    4462
 k-point  5 :   0.0000 0.1250 0.0000  plane waves:    4451
 k-point  6 :   0.1429 0.1250 0.0000  plane waves:    4440
 k-point  7 :   0.2857 0.1250 0.0000  plane waves:    4454
 k-point  8 :   0.4286 0.1250 0.0000  plane waves:    4470
 k-point  9 :   0.0000 0.2500 0.0000  plane waves:    4430
 k-point 10 :   0.1429 0.2500 0.0000  plane waves:    4448
 k-point 11 :   0.2857 0.2500 0.0000  plane waves:    4460
 k-point 12 :   0.4286 0.2500 0.0000  plane waves:    4460
 k-point 13 :   0.0000 0.3750 0.0000  plane waves:    4456
 k-point 14 :   0.1429 0.3750 0.0000  plane waves:    4452
 k-point 15 :   0.2857 0.3750 0.0000  plane waves:    4467
 k-point 16 :   0.4286 0.3750 0.0000  plane waves:    4459
 k-point 17 :   0.0000 0.5000 0.0000  plane waves:    4464
 k-point 18 :   0.1429 0.5000 0.0000  plane waves:    4468
 k-point 19 :   0.2857 0.5000 0.0000  plane waves:    4476
 k-point 20 :   0.4286 0.5000 0.0000  plane waves:    4460
 k-point 21 :   0.0000 0.0000 0.1429  plane waves:    4453
 k-point 22 :   0.1429 0.0000 0.1429  plane waves:    4449
 k-point 23 :   0.2857 0.0000 0.1429  plane waves:    4460
 k-point 24 :   0.4286 0.0000 0.1429  plane waves:    4469
 k-point 25 :  -0.4286 0.0000 0.1429  plane waves:    4466
 k-point 26 :  -0.2857 0.0000 0.1429  plane waves:    4452
 k-point 27 :  -0.1429 0.0000 0.1429  plane waves:    4451
 k-point 28 :   0.0000 0.1250 0.1429  plane waves:    4448
 k-point 29 :   0.1429 0.1250 0.1429  plane waves:    4441
 k-point 30 :   0.2857 0.1250 0.1429  plane waves:    4450
 k-point 31 :   0.4286 0.1250 0.1429  plane waves:    4460
 k-point 32 :  -0.4286 0.1250 0.1429  plane waves:    4454
 k-point 33 :  -0.2857 0.1250 0.1429  plane waves:    4445
 k-point 34 :  -0.1429 0.1250 0.1429  plane waves:    4446
 k-point 35 :   0.0000 0.2500 0.1429  plane waves:    4444
 k-point 36 :   0.1429 0.2500 0.1429  plane waves:    4447
 k-point 37 :   0.2857 0.2500 0.1429  plane waves:    4460
 k-point 38 :   0.4286 0.2500 0.1429  plane waves:    4463
 k-point 39 :  -0.4286 0.2500 0.1429  plane waves:    4458
 k-point 40 :  -0.2857 0.2500 0.1429  plane waves:    4447
 k-point 41 :  -0.1429 0.2500 0.1429  plane waves:    4436
 k-point 42 :   0.0000 0.3750 0.1429  plane waves:    4451
 k-point 43 :   0.1429 0.3750 0.1429  plane waves:    4460
 k-point 44 :   0.2857 0.3750 0.1429  plane waves:    4467
 k-point 45 :   0.4286 0.3750 0.1429  plane waves:    4449
 k-point 46 :  -0.4286 0.3750 0.1429  plane waves:    4465
 k-point 47 :  -0.2857 0.3750 0.1429  plane waves:    4462
 k-point 48 :  -0.1429 0.3750 0.1429  plane waves:    4450
 k-point 49 :   0.0000 0.5000 0.1429  plane waves:    4478
 k-point 50 :   0.1429 0.5000 0.1429  plane waves:    4456
 k-point 51 :   0.2857 0.5000 0.1429  plane waves:    4460
 k-point 52 :   0.4286 0.5000 0.1429  plane waves:    4454
 k-point 53 :  -0.4286 0.5000 0.1429  plane waves:    4462
 k-point 54 :  -0.2857 0.5000 0.1429  plane waves:    4456
 k-point 55 :  -0.1429 0.5000 0.1429  plane waves:    4462
 k-point 56 :   0.0000 0.0000 0.2857  plane waves:    4460
 k-point 57 :   0.1429 0.0000 0.2857  plane waves:    4453
 k-point 58 :   0.2857 0.0000 0.2857  plane waves:    4460
 k-point 59 :   0.4286 0.0000 0.2857  plane waves:    4466
 k-point 60 :  -0.4286 0.0000 0.2857  plane waves:    4454
 k-point 61 :  -0.2857 0.0000 0.2857  plane waves:    4463
 k-point 62 :  -0.1429 0.0000 0.2857  plane waves:    4441
 k-point 63 :   0.0000 0.1250 0.2857  plane waves:    4446
 k-point 64 :   0.1429 0.1250 0.2857  plane waves:    4457
 k-point 65 :   0.2857 0.1250 0.2857  plane waves:    4456
 k-point 66 :   0.4286 0.1250 0.2857  plane waves:    4457
 k-point 67 :  -0.4286 0.1250 0.2857  plane waves:    4458
 k-point 68 :  -0.2857 0.1250 0.2857  plane waves:    4439
 k-point 69 :  -0.1429 0.1250 0.2857  plane waves:    4440
 k-point 70 :   0.0000 0.2500 0.2857  plane waves:    4441
 k-point 71 :   0.1429 0.2500 0.2857  plane waves:    4450
 k-point 72 :   0.2857 0.2500 0.2857  plane waves:    4451
 k-point 73 :   0.4286 0.2500 0.2857  plane waves:    4457
 k-point 74 :  -0.4286 0.2500 0.2857  plane waves:    4448
 k-point 75 :  -0.2857 0.2500 0.2857  plane waves:    4436
 k-point 76 :  -0.1429 0.2500 0.2857  plane waves:    4439
 k-point 77 :   0.0000 0.3750 0.2857  plane waves:    4449
 k-point 78 :   0.1429 0.3750 0.2857  plane waves:    4456
 k-point 79 :   0.2857 0.3750 0.2857  plane waves:    4464
 k-point 80 :   0.4286 0.3750 0.2857  plane waves:    4459
 k-point 81 :  -0.4286 0.3750 0.2857  plane waves:    4457
 k-point 82 :  -0.2857 0.3750 0.2857  plane waves:    4449
 k-point 83 :  -0.1429 0.3750 0.2857  plane waves:    4440
 k-point 84 :   0.0000 0.5000 0.2857  plane waves:    4450
 k-point 85 :   0.1429 0.5000 0.2857  plane waves:    4462
 k-point 86 :   0.2857 0.5000 0.2857  plane waves:    4450
 k-point 87 :   0.4286 0.5000 0.2857  plane waves:    4452
 k-point 88 :  -0.4286 0.5000 0.2857  plane waves:    4444
 k-point 89 :  -0.2857 0.5000 0.2857  plane waves:    4454
 k-point 90 :  -0.1429 0.5000 0.2857  plane waves:    4452
 k-point 91 :   0.0000 0.0000 0.4286  plane waves:    4452
 k-point 92 :   0.1429 0.0000 0.4286  plane waves:    4454
 k-point 93 :   0.2857 0.0000 0.4286  plane waves:    4465
 k-point 94 :   0.4286 0.0000 0.4286  plane waves:    4450
 k-point 95 :  -0.4286 0.0000 0.4286  plane waves:    4445
 k-point 96 :  -0.2857 0.0000 0.4286  plane waves:    4447
 k-point 97 :  -0.1429 0.0000 0.4286  plane waves:    4448
 k-point 98 :   0.0000 0.1250 0.4286  plane waves:    4456
 k-point 99 :   0.1429 0.1250 0.4286  plane waves:    4467
 k-point ** :   0.2857 0.1250 0.4286  plane waves:    4451
 k-point ** :   0.4286 0.1250 0.4286  plane waves:    4463
 k-point ** :  -0.4286 0.1250 0.4286  plane waves:    4461
 k-point ** :  -0.2857 0.1250 0.4286  plane waves:    4453
 k-point ** :  -0.1429 0.1250 0.4286  plane waves:    4456
 k-point ** :   0.0000 0.2500 0.4286  plane waves:    4454
 k-point ** :   0.1429 0.2500 0.4286  plane waves:    4452
 k-point ** :   0.2857 0.2500 0.4286  plane waves:    4466
 k-point ** :   0.4286 0.2500 0.4286  plane waves:    4458
 k-point ** :  -0.4286 0.2500 0.4286  plane waves:    4456
 k-point ** :  -0.2857 0.2500 0.4286  plane waves:    4447
 k-point ** :  -0.1429 0.2500 0.4286  plane waves:    4443
 k-point ** :   0.0000 0.3750 0.4286  plane waves:    4450
 k-point ** :   0.1429 0.3750 0.4286  plane waves:    4457
 k-point ** :   0.2857 0.3750 0.4286  plane waves:    4452
 k-point ** :   0.4286 0.3750 0.4286  plane waves:    4453
 k-point ** :  -0.4286 0.3750 0.4286  plane waves:    4442
 k-point ** :  -0.2857 0.3750 0.4286  plane waves:    4442
 k-point ** :  -0.1429 0.3750 0.4286  plane waves:    4441
 k-point ** :   0.0000 0.5000 0.4286  plane waves:    4450
 k-point ** :   0.1429 0.5000 0.4286  plane waves:    4452
 k-point ** :   0.2857 0.5000 0.4286  plane waves:    4462
 k-point ** :   0.4286 0.5000 0.4286  plane waves:    4448
 k-point ** :  -0.4286 0.5000 0.4286  plane waves:    4444
 k-point ** :  -0.2857 0.5000 0.4286  plane waves:    4446
 k-point ** :  -0.1429 0.5000 0.4286  plane waves:    4442

 maximum and minimum number of plane-waves per node :       586      535

 maximum number of plane-waves:      4478
 maximum index in each direction: 
   IXMAX=   11   IYMAX=    9   IZMAX=   11
   IXMIN=  -11   IYMIN=  -10   IZMIN=  -11

 WARNING: aliasing errors must be expected set NGX to  46 to avoid them
 WARNING: aliasing errors must be expected set NGY to  40 to avoid them
 WARNING: aliasing errors must be expected set NGZ to  46 to avoid them
 aliasing errors are usually negligible using standard VASP settings
 and one can safely disregard these warnings

 real space projection operators:
  total allocation   :       3374.19 KBytes
  max/ min on nodes  :        470.28        369.88


 parallel 3D FFT for wavefunctions:
    minimum data exchange during FFTs selected (reduces bandwidth)
 parallel 3D FFT for charge:
    minimum data exchange during FFTs selected (reduces bandwidth)


 total amount of memory used by VASP on root node    61968. kBytes
========================================================================

   base      :      30000. kBytes
   nonlr-proj:       1517. kBytes
   fftplans  :        446. kBytes
   grid      :       1143. kBytes
   one-center:         62. kBytes
   wavefun   :      28800. kBytes
 
     INWAV:  cpu time    6.2705: real time    6.2969
 initial charge density was supplied:
 number of electron      71.9999928 magnetization       0.0000398
 keeping initial charge density in first step


--------------------------------------------------------------------------------------------------------


 Maximum index for non-local projection operator          644
 Maximum index for augmentation-charges          459 (set IRDMAX)


--------------------------------------------------------------------------------------------------------


 First call to EWALD:  gamma=   0.347
 Maximum number of real-space cells 3x 3x 3
 Maximum number of reciprocal cells 3x 3x 3

 FEWALD executed in parallel
    FEWALD:  cpu time    0.0012: real time    0.0013


----------------------------------------- Iteration    1(   1)  ---------------------------------------


    POTLOK:  cpu time    0.0108: real time    0.0109
    SETDIJ:  cpu time    0.0045: real time    0.0045
    EDDIAG:  cpu time    2.5400: real time    2.5583
  RMM-DIIS:  cpu time    2.8466: real time    2.8657
    ORTHCH:  cpu time    0.6779: real time    0.6823
 BZINTS: Fermi energy:  4.742848; 72.000000 electrons
         Band energy:-222.083464;  BLOECHL correction: -0.025699
       DOS:  cpu time    0.2873: real time    0.2885
    --------------------------------------------
      LOOP:  cpu time    6.3711: real time    6.4149

 eigenvalue-minimisations  : 69302
 total energy-change (2. order) :-0.1058579E+03  (-0.9965969E-04)
 number of electron      71.9999928 magnetization       0.0000398
 augmentation part       71.9999928 magnetization       0.0000398

 Free energy of the ion-electron system (eV)
  ---------------------------------------------------
  alpha Z        PSCENC =       346.92174425
  Ewald energy   TEWEN  =     -3774.33484846
  -Hartree energ DENC   =     -1033.73347788
  -exchange      EXHF   =         0.00000000
  -V(xc)+E(xc)   XCENC  =       -12.62874733
  PAW double counting   =      6433.89908673    -6172.86238619
  entropy T*S    EENTRO =         0.00000000
  eigenvalues    EBANDS =      -222.08346376
  atomic energy  EATOM  =      4328.96416383
  Solvation  Ediel_sol  =         0.00000000
  ---------------------------------------------------
  free energy    TOTEN  =      -105.85792881 eV

  energy without entropy =     -105.85792881  energy(sigma->0) =     -105.85792881


--------------------------------------------------------------------------------------------------------




----------------------------------------- Iteration    1(   2)  ---------------------------------------


    EDDIAG:  cpu time    2.4990: real time    2.5168
  RMM-DIIS:  cpu time    2.7969: real time    2.8173
    ORTHCH:  cpu time    0.6778: real time    0.6828
 BZINTS: Fermi energy:  4.742848; 72.000000 electrons
         Band energy:-222.083465;  BLOECHL correction: -0.025699
       DOS:  cpu time    0.2863: real time    0.2875
    --------------------------------------------
      LOOP:  cpu time    6.2626: real time    6.3200

 eigenvalue-minimisations  : 67662
 total energy-change (2. order) :-0.1528432E-05  (-0.1511052E-05)
 number of electron      71.9999928 magnetization       0.0000398
 augmentation part       71.9999928 magnetization       0.0000398

 Free energy of the ion-electron system (eV)
  ---------------------------------------------------
  alpha Z        PSCENC =       346.92174425
  Ewald energy   TEWEN  =     -3774.33484846
  -Hartree energ DENC   =     -1033.73347788
  -exchange      EXHF   =         0.00000000
  -V(xc)+E(xc)   XCENC  =       -12.62874733
  PAW double counting   =      6433.89908673    -6172.86238619
  entropy T*S    EENTRO =         0.00000000
  eigenvalues    EBANDS =      -222.08346529
  atomic energy  EATOM  =      4328.96416383
  Solvation  Ediel_sol  =         0.00000000
  ---------------------------------------------------
  free energy    TOTEN  =      -105.85793034 eV

  energy without entropy =     -105.85793034  energy(sigma->0) =     -105.85793034


--------------------------------------------------------------------------------------------------------




----------------------------------------- Iteration    1(   3)  ---------------------------------------


    EDDIAG:  cpu time    2.4986: real time    2.5142
  RMM-DIIS:  cpu time    2.5804: real time    2.5966
    ORTHCH:  cpu time    0.6611: real time    0.6652
 BZINTS: Fermi energy:  4.742848; 72.000000 electrons
         Band energy:-222.083465;  BLOECHL correction: -0.025699
       DOS:  cpu time    0.2671: real time    0.2683
    --------------------------------------------
      LOOP:  cpu time    6.0094: real time    6.0592

 eigenvalue-minimisations  : 61180
 total energy-change (2. order) :-0.3700825E-07  (-0.3909642E-07)
 number of electron      71.9999928 magnetization       0.0000398
 augmentation part       71.9999928 magnetization       0.0000398

 Free energy of the ion-electron system (eV)
  ---------------------------------------------------
  alpha Z        PSCENC =       346.92174425
  Ewald energy   TEWEN  =     -3774.33484846
  -Hartree energ DENC   =     -1033.73347788
  -exchange      EXHF   =         0.00000000
  -V(xc)+E(xc)   XCENC  =       -12.62874733
  PAW double counting   =      6433.89908673    -6172.86238619
  entropy T*S    EENTRO =         0.00000000
  eigenvalues    EBANDS =      -222.08346533
  atomic energy  EATOM  =      4328.96416383
  Solvation  Ediel_sol  =         0.00000000
  ---------------------------------------------------
  free energy    TOTEN  =      -105.85793038 eV

  energy without entropy =     -105.85793038  energy(sigma->0) =     -105.85793038


--------------------------------------------------------------------------------------------------------




 average (electrostatic) potential at core
  the test charge radii are     1.2296  0.7215
  (the norm of the test charge is              1.0000)
       1 -40.1107       2 -40.1108       3 -40.1106       4 -40.1106       5 -71.3165
       6 -71.3164       7 -71.3163       8 -71.3163       9 -71.7883      10 -71.7883
      11 -71.7881      12 -71.7880
 
 
 
 E-fermi :   4.7428     XC(G=0): -11.5780     alpha+bet :-11.1634


 spin component 1

 k-point     1 :       0.0000    0.0000    0.0000
  band No.  band energies     occupation 
      1     -15.4258      1.00000
      2     -14.7419      1.00000
      3     -14.7127      1.00000
      4     -14.6315      1.00000
      5     -13.8074      1.00000
      6     -13.8006      1.00000
      7     -13.7273      1.00000
      8     -13.6442      1.00000
      9      -3.4443      1.00000
     10      -3.1424      1.00000
     11      -2.9621      1.00000
     12      -2.9298      1.00000
     13      -2.7629      1.00000
     14      -2.7492      1.00000
     15      -2.7259      1.00000
     16      -0.7412      1.00000
     17      -0.6506      1.00000
     18      -0.5570      1.00000
     19      -0.3421      1.00000
     20      -0.0603      1.00000
     21       0.1343      1.00000
     22       0.2966      1.00000
     23       0.3664      1.00000
     24       0.4141      1.00000
     25       0.4980      1.00000
     26       1.1700      1.00000
     27       1.3772      1.00000
     28       1.6746      1.00000
     29       1.8342      1.00000
     30       1.8455      1.00000
     31       2.0713      1.00000
     32       2.6076      1.00000
     33       2.7298      1.00000
     34       3.0477      1.00000
     35       3.6615      1.00000
     36       3.6848      1.00000
     37       4.3598      1.01601
     38       5.5010      0.00000
     39       5.6501      0.00000
     40       6.0878      0.00000
     41       6.1107      0.00000
     42       7.4794      0.00000
     43       7.5214      0.00000
     44       7.6261      0.00000
     45       7.6835      0.00000
     46       8.0318      0.00000
     47       8.0441      0.00000
     48       9.5691      0.00000
     49       9.6337      0.00000
     50       9.7598      0.00000
     51      11.2560      0.00000
     52      11.3120      0.00000
     53      11.4042      0.00000
     54      14.5496      0.00000
     55      14.8461      0.00000
     56      15.4604      0.00000
     57      16.6483      0.00000
     58      17.1451      0.00000
     59      18.4517      0.00000
     60      22.5334      0.00000
     61      28.5420      0.00000
     62      30.0139      0.00000
     63      33.8988      0.00000
     64      37.4570      0.00000
     65      37.1554      0.00000
     66      39.1627      0.00000
     67      41.1017      0.00000
     68      43.8207      0.00000
     69      44.0174      0.00000
     70      45.9106      0.00000
     71      47.2658      0.00000
     72      48.9578      0.00000
     73      52.0453      0.00000
     74      54.0343      0.00000
     75      56.9046      0.00000
     76      60.2128      0.00000
     77      61.2080      0.00000
     78      62.5332      0.00000
     79      65.0698      0.00000
     80      65.4796      0.00000
     81      67.1008      0.00000
     82      69.6221      0.00000
     83      70.3533      0.00000
     84      72.5718      0.00000
     85      73.7972      0.00000
     86      76.6711      0.00000
     87      78.2846      0.00000
     88      79.2938      0.00000
     89      82.9066      0.00000
     90      83.4208      0.00000
     91      85.4080      0.00000
     92      88.4358      0.00000
     93      87.5778      0.00000
     94      91.3217      0.00000
     95      91.1279      0.00000
     96      94.0675      0.00000

 k-point     2 :       0.1429    0.0000    0.0000
  band No.  band energies     occupation 
      1     -15.3629      1.00000
      2     -14.7218      1.00000
      3     -14.7023      1.00000
      4     -14.5978      1.00000
      5     -13.8427      1.00000
      6     -13.8320      1.00000
      7     -13.7467      1.00000
      8     -13.7133      1.00000
      9      -3.3340      1.00000
     10      -3.1095      1.00000
     11      -2.9494      1.00000
     12      -2.8431      1.00000
     13      -2.6898      1.00000
     14      -2.5961      1.00000
     15      -2.5511      1.00000
     16      -0.8259      1.00000
     17      -0.8165      1.00000
     18      -0.7085      1.00000
     19      -0.4889      1.00000
     20      -0.0179      1.00000
     21      -0.0147      1.00000
     22       0.3359      1.00000
     23       0.3946      1.00000
     24       0.5226      1.00000
     25       0.5590      1.00000
     26       1.0187      1.00000
     27       1.4124      1.00000
     28       1.4556      1.00000
     29       1.6693      1.00000
     30       1.7707      1.00000
     31       1.8262      1.00000
     32       2.5853      1.00000
     33       2.8502      1.00000
     34       3.1342      1.00000
     35       3.7065      1.00000
     36       3.9827      1.00000
     37       4.3965      1.06489
     38       5.4368      0.00000
     39       5.5405      0.00000
     40       6.1845      0.00000
     41       6.2280      0.00000
     42       7.4479      0.00000
     43       7.5861      0.00000
     44       7.5867      0.00000
     45       7.7079      0.00000
     46       7.8590      0.00000
     47       8.0023      0.00000
     48       9.5018      0.00000
     49       9.5482      0.00000
     50      10.0241      0.00000
     51      11.0937      0.00000
     52      11.2160      0.00000
     53      11.4262      0.00000
     54      14.5865      0.00000
     55      14.7040      0.00000
     56      14.9071      0.00000
     57      15.0375      0.00000
     58      17.7287      0.00000
     59      18.0581      0.00000
     60      23.4678      0.00000
     61      28.2649      0.00000
     62      30.9208      0.00000
     63      32.0369      0.00000
     64      33.7481      0.00000
     65      37.6207      0.00000
     66      41.1107      0.00000
     67      42.6687      0.00000
     68      42.2381      0.00000
     69      43.2376      0.00000
     70      44.5189      0.00000
     71      45.7553      0.00000
     72      45.8256      0.00000
     73      50.1864      0.00000
     74      51.9664      0.00000
     75      54.4842      0.00000
     76      58.9847      0.00000
     77      59.3647      0.00000
     78      63.2555      0.00000
     79      63.7222      0.00000
     80      67.2312      0.00000
     81      68.6337      0.00000
     82      71.6715      0.00000
     83      72.8321      0.00000
     84      72.4310      0.00000
     85      73.7987      0.00000
     86      77.0380      0.00000
     87      80.9720      0.00000
     88      81.2475      0.00000
     89      82.4100      0.00000
     90      84.5561      0.00000
     91      85.4974      0.00000
     92      87.8842      0.00000
     93      87.2527      0.00000
     94      89.1149      0.00000
     95      92.5698      0.00000
     96      95.6438      0.00000

 k-point     3 :       0.2857    0.0000    0.0000
  band No.  band energies     occupation 
      1     -15.1904      1.00000
      2     -14.6895      1.00000
      3     -14.6632      1.00000
      4     -14.5219      1.00000
      5     -13.9346      1.00000
      6     -13.9266      1.00000
      7     -13.8414      1.00000
      8     -13.8144      1.00000
      9      -3.0545      1.00000
     10      -3.0134      1.00000
     11      -2.9174      1.00000
     12      -2.6698      1.00000
     13      -2.4415      1.00000
     14      -2.1135      1.00000
     15      -2.0995      1.00000
     16      -1.1604      1.00000
     17      -1.1115      1.00000
     18      -1.0606      1.00000
     19      -0.5676      1.00000
     20      -0.3428      1.00000
     21       0.0246      1.00000
     22       0.0956      1.00000
     23       0.4547      1.00000
     24       0.5613      1.00000
     25       0.6422      1.00000
     26       0.8195      1.00000
     27       0.9541      1.00000
     28       1.0701      1.00000
     29       1.4646      1.00000
     30       1.6501      1.00000
     31       1.7922      1.00000
     32       2.4749      1.00000
     33       3.0960      1.00000
     34       3.3090      1.00000
     35       3.8769      1.00000
     36       4.4444      1.00419
     37       4.4678      1.07049
     38       5.3796      0.00000
     39       5.4376      0.00000
     40       6.3194      0.00000
     41       6.4188      0.00000
     42       7.1236      0.00000
     43       7.2536      0.00000
     44       7.3587      0.00000
     45       7.9537      0.00000
     46       7.9820      0.00000
     47       8.1257      0.00000
     48       9.2735      0.00000
     49       9.3597      0.00000
     50      10.6010      0.00000
     51      10.7639      0.00000
     52      11.0904      0.00000
     53      11.5083      0.00000
     54      13.9209      0.00000
     55      14.8721      0.00000
     56      15.3180      0.00000
     57      16.2055      0.00000
     58      17.9289      0.00000
     59      22.3578      0.00000
     60      26.3230      0.00000
     61      29.1752      0.00000
     62      29.7841      0.00000
     63      32.5611      0.00000
     64      37.9972      0.00000
     65      39.4416      0.00000
     66      41.2390      0.00000
     67      41.9052      0.00000
     68      42.8365      0.00000
     69      44.3677      0.00000
     70      46.6468      0.00000
     71      45.4375      0.00000
     72      48.6905      0.00000
     73      50.2860      0.00000
     74      51.7647      0.00000
     75      55.7460      0.00000
     76      56.8872      0.00000
     77      59.1972      0.00000
     78      61.9842      0.00000
     79      64.4423      0.00000
     80      65.9821      0.00000
     81      68.8330      0.00000
     82      67.6621      0.00000
     83      70.5578      0.00000
     84      71.5870      0.00000
     85      73.5678      0.00000
     86      75.9443      0.00000
     87      78.3732      0.00000
     88      78.9762      0.00000
     89      80.2700      0.00000
     90      81.5123      0.00000
     91      83.8893      0.00000
     92      83.5757      0.00000
     93      85.2812      0.00000
     94      88.4348      0.00000
     95      91.5608      0.00000
     96      93.0991      0.00000

 k-point     4 :       0.4286    0.0000    0.0000
  band No.  band energies     occupation 
      1     -14.9688      1.00000
      2     -14.7338      1.00000
      3     -14.5943      1.00000
      4     -14.4667      1.00000
      5     -14.0915      1.00000
      6     -13.9698      1.00000
      7     -13.9090      1.00000
      8     -13.8975      1.00000
      9      -2.9791      1.00000
     10      -2.9611      1.00000
     11      -2.6400      1.00000
     12      -2.2855      1.00000
     13      -2.1128      1.00000
     14      -1.9525      1.00000
     15      -1.5265      1.00000
     16      -1.4662      1.00000
     17      -1.2695      1.00000
     18      -1.0779      1.00000
     19      -0.8956      1.00000
     20      -0.6730      1.00000
     21      -0.1443      1.00000
     22      -0.0221      1.00000
     23       0.1924      1.00000
     24       0.2026      1.00000
     25       0.5446      1.00000
     26       0.6470      1.00000
     27       0.8329      1.00000
     28       1.0008      1.00000
     29       1.2599      1.00000
     30       1.6768      1.00000
     31       2.0131      1.00000
     32       2.2915      1.00000
     33       3.2840      1.00000
     34       3.4593      1.00000
     35       4.0668      1.00000
     36       4.4545      1.00303
     37       4.6987      0.45244
     38       5.2713      0.00000
     39       5.6027      0.00000
     40       6.4363      0.00000
     41       6.5609      0.00000
     42       6.8390      0.00000
     43       6.8391      0.00000
     44       7.0901      0.00000
     45       8.1056      0.00000
     46       8.1636      0.00000
     47       8.4270      0.00000
     48       9.0901      0.00000
     49       9.2714      0.00000
     50      10.1152      0.00000
     51      10.8880      0.00000
     52      11.4646      0.00000
     53      11.9251      0.00000
     54      12.9547      0.00000
     55      15.0857      0.00000
     56      15.4117      0.00000
     57      18.5710      0.00000
     58      25.1630      0.00000
     59      26.3542      0.00000
     60      28.6225      0.00000
     61      29.7577      0.00000
     62      33.4043      0.00000
     63      35.2756      0.00000
     64      38.4073      0.00000
     65      38.4074      0.00000
     66      39.3075      0.00000
     67      43.1433      0.00000
     68      44.4218      0.00000
     69      45.1508      0.00000
     70      47.3987      0.00000
     71      49.8431      0.00000
     72      53.8485      0.00000
     73      55.0634      0.00000
     74      56.0124      0.00000
     75      58.1933      0.00000
     76      60.9359      0.00000
     77      64.5618      0.00000
     78      67.4206      0.00000
     79      66.7590      0.00000
     80      66.7151      0.00000
     81      69.7141      0.00000
     82      70.2130      0.00000
     83      71.3997      0.00000
     84      72.9618      0.00000
     85      75.9377      0.00000
     86      78.0688      0.00000
     87      79.5094      0.00000
     88      78.8106      0.00000
     89      80.1933      0.00000
     90      82.2817      0.00000
     91      85.1665      0.00000
     92      83.8742      0.00000
     93      86.0839      0.00000
     94      88.6856      0.00000
     95      90.6363      0.00000
     96      92.1681      0.00000

 k-point     5 :       0.0000    0.1250    0.0000
  band No.  band energies     occupation 
      1     -15.3802      1.00000
      2     -14.7187      1.00000
      3     -14.6934      1.00000
      4     -14.6166      1.00000
      5     -13.8691      1.00000
      6     -13.8241      1.00000
      7     -13.7478      1.00000
      8     -13.6805      1.00000
      9      -3.3528      1.00000
     10      -3.0919      1.00000
     11      -2.8587      1.00000
     12      -2.8368      1.00000
     13      -2.6904      1.00000
     14      -2.6693      1.00000
     15      -2.6263      1.00000
     16      -0.8584      1.00000
     17      -0.8324      1.00000
     18      -0.5971      1.00000
     19      -0.4613      1.00000
     20      -0.1874      1.00000
     21      -0.1281      1.00000
     22       0.1622      1.00000
     23       0.3011      1.00000
     24       0.6192      1.00000
     25       0.6402      1.00000
     26       1.1611      1.00000
     27       1.3845      1.00000
     28       1.5827      1.00000
     29       1.6609      1.00000
     30       1.7452      1.00000
     31       1.9804      1.00000
     32       2.5673      1.00000
     33       2.9279      1.00000
     34       3.1112      1.00000
     35       3.7619      1.00000
     36       3.7943      1.00000
     37       4.5634      0.88809
     38       5.6088      0.00000
     39       5.6955      0.00000
     40       6.0109      0.00000
     41       6.0383      0.00000
     42       7.5358      0.00000
     43       7.5895      0.00000
     44       7.6286      0.00000
     45       7.7410      0.00000
     46       8.0624      0.00000
     47       8.1137      0.00000
     48       9.5239      0.00000
     49       9.5635      0.00000
[...]
     67      42.2841      0.00000
     68      43.5944      0.00000
     69      45.6187      0.00000
     70      46.4309      0.00000
     71      47.2555      0.00000
     72      51.9650      0.00000
     73      55.3847      0.00000
     74      56.6099      0.00000
     75      57.6643      0.00000
     76      61.0737      0.00000
     77      62.1081      0.00000
     78      64.7184      0.00000
     79      67.5565      0.00000
     80      68.1864      0.00000
     81      69.0582      0.00000
     82      70.9994      0.00000
     83      73.0060      0.00000
     84      74.1257      0.00000
     85      76.4600      0.00000
     86      75.0540      0.00000
     87      78.8378      0.00000
     88      78.7512      0.00000
     89      81.7503      0.00000
     90      82.7732      0.00000
     91      83.2126      0.00000
     92      85.1122      0.00000
     93      87.2574      0.00000
     94      86.7245      0.00000
     95      90.0469      0.00000
     96      94.7020      0.00000


--------------------------------------------------------------------------------------------------------


 soft charge-density along one line, spin component           1
         0         1         2         3         4         5         6         7         8         9
 total charge-density along one line
 
 soft charge-density along one line, spin component           2
         0         1         2         3         4         5         6         7         8         9
 total charge-density along one line
 
 pseudopotential strength for first ion, spin component:           1
 -8.126   0.003  -0.002  -0.019  -0.000  -8.336   0.003  -0.002
  0.003  -8.161  -0.009   0.003   0.016   0.003  -8.370  -0.009
 -0.002  -0.009  -8.149   0.002  -0.013  -0.002  -0.009  -8.359
 -0.019   0.003   0.002  -8.126   0.002  -0.019   0.003   0.002
 -0.000   0.016  -0.013   0.002  -8.135  -0.000   0.016  -0.013
 -8.336   0.003  -0.002  -0.019  -0.000  -8.535   0.003  -0.002
  0.003  -8.370  -0.009   0.003   0.016   0.003  -8.569  -0.009
 -0.002  -0.009  -8.359   0.002  -0.013  -0.002  -0.009  -8.558
 -0.019   0.003   0.002  -8.335   0.002  -0.019   0.003   0.002
 -0.000   0.016  -0.013   0.002  -8.344  -0.000   0.016  -0.013
 -0.002   0.014   0.005  -0.002  -0.010  -0.002   0.014   0.005
 -0.004   0.029   0.011  -0.003  -0.021  -0.004   0.029   0.011
  0.039   0.002   0.000  -0.003  -0.002   0.039   0.003   0.000
 -0.003   0.004  -0.002   0.040  -0.000  -0.003   0.004  -0.002
  0.001  -0.003  -0.025   0.002   0.045   0.001  -0.003  -0.025
  0.053   0.004   0.000  -0.004  -0.003   0.053   0.004   0.000
 -0.004   0.006  -0.001   0.055  -0.000  -0.004   0.006  -0.001
  0.002  -0.004  -0.034   0.003   0.061   0.002  -0.004  -0.034
 pseudopotential strength for first ion, spin component:           2
 -8.126   0.003  -0.002  -0.019  -0.000  -8.336   0.003  -0.002
  0.003  -8.161  -0.009   0.003   0.016   0.003  -8.370  -0.009
 -0.002  -0.009  -8.149   0.002  -0.013  -0.002  -0.009  -8.359
 -0.019   0.003   0.002  -8.126   0.002  -0.019   0.003   0.002
 -0.000   0.016  -0.013   0.002  -8.135  -0.000   0.016  -0.013
 -8.336   0.003  -0.002  -0.019  -0.000  -8.535   0.003  -0.002
  0.003  -8.370  -0.009   0.003   0.016   0.003  -8.569  -0.009
 -0.002  -0.009  -8.359   0.002  -0.013  -0.002  -0.009  -8.558
 -0.019   0.003   0.002  -8.335   0.002  -0.019   0.003   0.002
 -0.000   0.016  -0.013   0.002  -8.344  -0.000   0.016  -0.013
 -0.002   0.014   0.005  -0.002  -0.010  -0.002   0.014   0.005
 -0.004   0.029   0.011  -0.003  -0.021  -0.004   0.029   0.011
  0.039   0.002   0.000  -0.003  -0.002   0.039   0.003   0.000
 -0.003   0.004  -0.002   0.040  -0.000  -0.003   0.004  -0.002
  0.001  -0.003  -0.025   0.002   0.045   0.001  -0.003  -0.025
  0.053   0.004   0.000  -0.004  -0.003   0.053   0.004   0.000
 -0.004   0.006  -0.001   0.055  -0.000  -0.004   0.006  -0.001
  0.002  -0.004  -0.034   0.003   0.061   0.002  -0.004  -0.034
 total augmentation occupancy for first ion, spin component:           1
  1.000   0.000   0.000   0.000   0.000   0.000   0.000   0.000   0.000   0.000   0.000   0.000   0.000   0.000   0.000   0.000
  0.000   1.000   0.000   0.000   0.000   0.000   0.000   0.000   0.000   0.000   0.000   0.000   0.000   0.000   0.000   0.000
  0.000   0.000   1.000   0.000   0.000   0.000   0.000   0.000   0.000   0.000   0.000   0.000   0.000   0.000   0.000   0.000
  0.000   0.000   0.000   1.000   0.000   0.000   0.000   0.000   0.000   0.000   0.000   0.000   0.000   0.000   0.000   0.000
  0.000   0.000   0.000   0.000   1.000   0.000   0.000   0.000   0.000   0.000   0.000   0.000   0.000   0.000   0.000   0.000
  0.000   0.000   0.000   0.000   0.000   0.000   0.000   0.000   0.000   0.000   0.000   0.000   0.000   0.000   0.000   0.000
  0.000   0.000   0.000   0.000   0.000   0.000   0.000   0.000   0.000   0.000   0.000   0.000   0.000   0.000   0.000   0.000
  0.000   0.000   0.000   0.000   0.000   0.000   0.000   0.000   0.000   0.000   0.000   0.000   0.000   0.000   0.000   0.000
  0.000   0.000   0.000   0.000   0.000   0.000   0.000   0.000   0.000   0.000   0.000   0.000   0.000   0.000   0.000   0.000
  0.000   0.000   0.000   0.000   0.000   0.000   0.000   0.000   0.000   0.000   0.000   0.000   0.000   0.000   0.000   0.000
  0.000   0.000   0.000   0.000   0.000   0.000   0.000   0.000   0.000   0.000   1.000   0.000   0.000   0.000   0.000   0.000
  0.000   0.000   0.000   0.000   0.000   0.000   0.000   0.000   0.000   0.000   0.000   0.000   0.000   0.000   0.000   0.000
  0.000   0.000   0.000   0.000   0.000   0.000   0.000   0.000   0.000   0.000   0.000   0.000   0.000   0.000   0.000   0.000
  0.000   0.000   0.000   0.000   0.000   0.000   0.000   0.000   0.000   0.000   0.000   0.000   0.000   0.000   0.000   0.000
  0.000   0.000   0.000   0.000   0.000   0.000   0.000   0.000   0.000   0.000   0.000   0.000   0.000   0.000   0.000   0.000
  0.000   0.000   0.000   0.000   0.000   0.000   0.000   0.000   0.000   0.000   0.000   0.000   0.000   0.000   0.000   0.000
  0.000   0.000   0.000   0.000   0.000   0.000   0.000   0.000   0.000   0.000   0.000   0.000   0.000   0.000   0.000   0.000
  0.000   0.000   0.000   0.000   0.000   0.000   0.000   0.000   0.000   0.000   0.000   0.000   0.000   0.000   0.000   0.000
 total augmentation occupancy for first ion, spin component:           2
  0.167   0.000   0.000   0.000   0.000   0.000   0.000   0.000   0.000   0.000   0.000   0.000   0.000   0.000   0.000   0.000
  0.000   0.167   0.000   0.000   0.000   0.000   0.000   0.000   0.000   0.000   0.000   0.000   0.000   0.000   0.000   0.000
  0.000   0.000   0.167   0.000   0.000   0.000   0.000   0.000   0.000   0.000   0.000   0.000   0.000   0.000   0.000   0.000
  0.000   0.000   0.000   0.167   0.000   0.000   0.000   0.000   0.000   0.000   0.000   0.000   0.000   0.000   0.000   0.000
  0.000   0.000   0.000   0.000   0.167   0.000   0.000   0.000   0.000   0.000   0.000   0.000   0.000   0.000   0.000   0.000
  0.000   0.000   0.000   0.000   0.000   0.000   0.000   0.000   0.000   0.000   0.000   0.000   0.000   0.000   0.000   0.000
  0.000   0.000   0.000   0.000   0.000   0.000   0.000   0.000   0.000   0.000   0.000   0.000   0.000   0.000   0.000   0.000
  0.000   0.000   0.000   0.000   0.000   0.000   0.000   0.000   0.000   0.000   0.000   0.000   0.000   0.000   0.000   0.000
  0.000   0.000   0.000   0.000   0.000   0.000   0.000   0.000   0.000   0.000   0.000   0.000   0.000   0.000   0.000   0.000
  0.000   0.000   0.000   0.000   0.000   0.000   0.000   0.000   0.000   0.000   0.000   0.000   0.000   0.000   0.000   0.000
  0.000   0.000   0.000   0.000   0.000   0.000   0.000   0.000   0.000   0.000   0.167   0.000   0.000   0.000   0.000   0.000
  0.000   0.000   0.000   0.000   0.000   0.000   0.000   0.000   0.000   0.000   0.000   0.000   0.000   0.000   0.000   0.000
  0.000   0.000   0.000   0.000   0.000   0.000   0.000   0.000   0.000   0.000   0.000   0.000   0.000   0.000   0.000   0.000
  0.000   0.000   0.000   0.000   0.000   0.000   0.000   0.000   0.000   0.000   0.000   0.000   0.000   0.000   0.000   0.000
  0.000   0.000   0.000   0.000   0.000   0.000   0.000   0.000   0.000   0.000   0.000   0.000   0.000   0.000   0.000   0.000
  0.000   0.000   0.000   0.000   0.000   0.000   0.000   0.000   0.000   0.000   0.000   0.000   0.000   0.000   0.000   0.000
  0.000   0.000   0.000   0.000   0.000   0.000   0.000   0.000   0.000   0.000   0.000   0.000   0.000   0.000   0.000   0.000
  0.000   0.000   0.000   0.000   0.000   0.000   0.000   0.000   0.000   0.000   0.000   0.000   0.000   0.000   0.000   0.000


------------------------ aborting loop because EDIFF is reached ----------------------------------------


 


 total charge     
 
# of ion     s       p       d       tot
----------------------------------------
  1        0.461   0.736   4.243   5.440
  2        0.460   0.735   4.340   5.535
  3        0.461   0.736   4.243   5.440
  4        0.460   0.735   4.340   5.535
  5        1.559   3.479   0.000   5.037
  6        1.562   3.458   0.000   5.020
  7        1.559   3.479   0.000   5.037
  8        1.562   3.458   0.000   5.020
  9        1.567   3.474   0.000   5.041
 10        1.564   3.477   0.000   5.041
 11        1.567   3.473   0.000   5.041
 12        1.564   3.477   0.000   5.041
------------------------------------------------
tot       14.346  30.716  17.166  62.228
 


 magnetization (x)
 
# of ion     s       p       d       tot
----------------------------------------
  1       -0.000  -0.000  -0.000  -0.000
  2       -0.000  -0.000  -0.000  -0.000
  3       -0.000  -0.000  -0.000  -0.000
  4       -0.000  -0.000  -0.000  -0.000
  5        0.000   0.000   0.000   0.000
  6        0.000   0.000   0.000   0.000
  7        0.000   0.000   0.000   0.000
  8        0.000   0.000   0.000   0.000
  9        0.000   0.000   0.000   0.000
 10        0.000   0.000   0.000   0.000
 11        0.000   0.000   0.000   0.000
 12        0.000   0.000   0.000   0.000
------------------------------------------------
tot       -0.000   0.000  -0.000  -0.000
 
    CHARGE:  cpu time    0.0945: real time    0.0950
    FORLOC:  cpu time    0.0002: real time    0.0002
    FORNL :  cpu time    1.1043: real time    1.1099
    STRESS:  cpu time    3.3321: real time    3.3492
    FORCOR:  cpu time    0.0083: real time    0.0083
    FORHAR:  cpu time    0.0011: real time    0.0011
    OFIELD:  cpu time    0.0000: real time    0.0000

 ---------------------------------------------------------------------------------------------

         DFTD3 V3.0 Rev 1        
 IVDW         = 12
 DF pbe       
 parameters
 VDW_S6       =    1.0000
 VDW_S8       =    0.7875
 VDW_A1       =    0.4289
 VDW_A2       =    4.4407
 k1-k3        =   16.0000    1.3333   -4.0000
 VDW_RADIUS   =   50.2022 A
 VDW_CNRADIUS =   21.1671 A
 Edisp (eV)   -2.97032

 E6    (eV) :    -1.7935
 E8    (eV) :    -1.1768
 % E8        : 39.62
    FORVDW:  cpu time    0.0608: real time    0.0611

  FORCE on cell =-STRESS in cart. coord.  units (eV):
  Direction    XX          YY          ZZ          XY          YZ          ZX
  --------------------------------------------------------------------------------------
  Alpha Z   346.92174   346.92174   346.92174
  Ewald   -1101.12066 -1336.76856 -1336.45084     0.00013     0.00002    -2.53716
  Hartree   417.06322   310.90113   306.03468     0.00001     0.00001     2.63423
  E(xc)    -356.34922  -352.66639  -352.76909    -0.00000    -0.00000    -0.26280
  Local    -495.17504  -161.62011  -157.24574    -0.00008    -0.00004    -0.08033
  n-local  -251.46954  -240.17529  -239.83074    -0.59369     0.10399    -0.97826
  augment    89.56406    87.41599    87.40413     0.00000     0.00000     0.11126
  Kinetic  1353.86375  1349.44688  1349.10464     1.56946    -0.33411     1.10798
  Fock        0.00000     0.00000     0.00000     0.00000     0.00000     0.00000
  vdW        -3.07236    -3.13833    -3.13955     0.00000    -0.00000    -0.00553
  -------------------------------------------------------------------------------------
  Total       0.22596     0.31706     0.02923     0.00000     0.00000    -0.01061
  in kB       2.71342     3.80727     0.35103     0.00000     0.00000    -0.12737
  external pressure =        2.29 kB  Pullay stress =        0.00 kB


 VOLUME and BASIS-vectors are now :
 -----------------------------------------------------------------------------
  energy-cutoff  :      600.00
  volume of cell :      133.42
      direct lattice vectors                 reciprocal lattice vectors
     5.586366759  0.000000000 -0.006594554     0.179132228  0.000000000  0.105894148
     0.000000000  4.894292333  0.000000000     0.000000000  0.204319630  0.000000000
    -2.886796650  0.000000000  4.883351214     0.000241903  0.000000000  0.204920408

  length of vectors
     5.586370652  4.894292333  5.672804771     0.208091148  0.204319630  0.204920551


 FORCES acting on ions
    electron-ion (+dipol)            ewald-force                    non-local-force                 convergence-correction
 -----------------------------------------------------------------------------------------------
   0.180E+02 0.443E+01 0.176E+02   -.192E+02 -.452E+01 -.174E+02   0.123E+01 0.893E-01 -.163E+00   0.231E-01 0.521E-02 0.522E-02
   -.180E+02 0.443E+01 -.176E+02   0.193E+02 -.453E+01 0.174E+02   -.123E+01 0.893E-01 0.163E+00   -.231E-01 0.527E-02 -.534E-02
   -.180E+02 -.442E+01 -.176E+02   0.192E+02 0.453E+01 0.174E+02   -.123E+01 -.893E-01 0.163E+00   -.229E-01 -.558E-02 -.580E-02
   0.180E+02 -.442E+01 0.176E+02   -.193E+02 0.453E+01 -.174E+02   0.123E+01 -.893E-01 -.163E+00   0.227E-01 -.557E-02 0.580E-02
   0.882E+01 0.110E+02 -.127E+02   -.876E+01 -.116E+02 0.145E+02   -.483E-01 0.674E+00 -.176E+01   -.935E-02 -.419E-02 0.477E-04
   -.882E+01 0.110E+02 0.127E+02   0.876E+01 -.116E+02 -.145E+02   0.483E-01 0.674E+00 0.176E+01   0.932E-02 -.414E-02 0.902E-03
   -.882E+01 -.110E+02 0.127E+02   0.876E+01 0.116E+02 -.145E+02   0.483E-01 -.674E+00 0.176E+01   0.685E-02 0.426E-02 0.162E-02
   0.882E+01 -.110E+02 -.128E+02   -.876E+01 0.116E+02 0.145E+02   -.483E-01 -.674E+00 -.176E+01   -.660E-02 0.413E-02 0.872E-03
   0.914E+01 0.126E+02 0.222E+02   -.100E+02 -.169E+02 -.281E+02   0.852E+00 0.426E+01 0.587E+01   0.109E-01 0.158E-01 0.171E-01
   -.914E+01 0.126E+02 -.222E+02   0.100E+02 -.169E+02 0.281E+02   -.852E+00 0.426E+01 -.587E+01   -.115E-01 0.160E-01 -.166E-01
   -.914E+01 -.126E+02 -.222E+02   0.100E+02 0.169E+02 0.281E+02   -.852E+00 -.426E+01 -.587E+01   -.137E-01 -.159E-01 -.152E-01
   0.914E+01 -.126E+02 0.222E+02   -.100E+02 0.169E+02 -.281E+02   0.852E+00 -.426E+01 0.587E+01   0.115E-01 -.159E-01 0.142E-01
 -----------------------------------------------------------------------------------------------
   0.802E-02 0.199E-01 -.985E-02   0.000E+00 -.213E-13 -.178E-13   -.333E-15 0.888E-15 -.266E-14   -.279E-02 -.602E-03 0.272E-02
 
 
 POSITION                                       TOTAL-FORCE (eV/Angst)
 -----------------------------------------------------------------------------------
      0.11001      2.40805      2.35717         0.002635     -0.005916     -0.001914
      4.03295      4.85520      0.07791        -0.002635     -0.005916      0.001914
      2.58956      2.48624      2.51959        -0.002635      0.005916      0.001914
     -1.33338      0.03909      4.79885         0.002635      0.005916     -0.001914
     -1.41507      1.48326      3.42695         0.001358     -0.017053      0.009003
      2.67124      3.93040      3.89149        -0.001358     -0.017053     -0.009003
      4.11464      3.41103      1.44981        -0.001358      0.017053     -0.009003
      0.02833      0.96389      0.98528         0.001358      0.017053      0.009003
     -0.04323      3.82952      3.73390        -0.002546     -0.007838     -0.018223
      1.29940      1.38237      3.58453         0.002546     -0.007838      0.018223
      2.74280      1.06478      1.14285         0.002546      0.007838      0.018223
      1.40017      3.51192      1.29222        -0.002546      0.007838     -0.018223
 -----------------------------------------------------------------------------------
    total drift:                                0.005226      0.019268     -0.007133


--------------------------------------------------------------------------------------------------------



  FREE ENERGIE OF THE ION-ELECTRON SYSTEM (eV)
  ---------------------------------------------------
  free  energy   TOTEN  =      -108.82824873 eV

  energy  without entropy=     -108.82824873  energy(sigma->0) =     -108.82824873
 


--------------------------------------------------------------------------------------------------------


    POTLOK:  cpu time    0.0164: real time    0.0165


--------------------------------------------------------------------------------------------------------


 stress matrix after NEB project (eV)
      0.22596      0.00000     -0.01061
      0.00000      0.31706      0.00000
     -0.01061      0.00000      0.02923
  FORCES: max atom, RMS     0.020000    0.016526
  FORCE total and by dimension    0.057246    0.018223
  Stress total and by dimension    0.390723    0.317057
     LOOP+:  cpu time   23.3184: real time   23.4976
    4ORBIT:  cpu time    0.0000: real time    0.0000
 


 total charge     
 
# of ion     s       p       d       tot
----------------------------------------
  1        0.461   0.736   4.243   5.440
  2        0.460   0.735   4.340   5.535
  3        0.461   0.736   4.243   5.440
  4        0.460   0.735   4.340   5.535
  5        1.559   3.479   0.000   5.037
  6        1.562   3.458   0.000   5.020
  7        1.559   3.479   0.000   5.037
  8        1.562   3.458   0.000   5.020
  9        1.567   3.474   0.000   5.041
 10        1.564   3.477   0.000   5.041
 11        1.567   3.473   0.000   5.041
 12        1.564   3.477   0.000   5.041
------------------------------------------------
tot       14.346  30.716  17.166  62.228
 


 magnetization (x)
 
# of ion     s       p       d       tot
----------------------------------------
  1       -0.000  -0.000  -0.000  -0.000
  2       -0.000  -0.000  -0.000  -0.000
  3       -0.000  -0.000  -0.000  -0.000
  4       -0.000  -0.000  -0.000  -0.000
  5        0.000   0.000   0.000   0.000
  6        0.000   0.000   0.000   0.000
  7        0.000   0.000   0.000   0.000
  8        0.000   0.000   0.000   0.000
  9        0.000   0.000   0.000   0.000
 10        0.000   0.000   0.000   0.000
 11        0.000   0.000   0.000   0.000
 12        0.000   0.000   0.000   0.000
------------------------------------------------
tot       -0.000   0.000  -0.000  -0.000
 
 BZINTS: Fermi energy:  4.742848; 72.000000 electrons
         Band energy:-222.083465;  BLOECHL correction: -0.025699

 total amount of memory used by VASP on root node    61968. kBytes
========================================================================

   base      :      30000. kBytes
   nonlr-proj:       1517. kBytes
   fftplans  :        446. kBytes
   grid      :       1143. kBytes
   one-center:         62. kBytes
   wavefun   :      28800. kBytes
 
  
  
 General timing and accounting informations for this job:
 ========================================================
  
                  Total CPU time used (sec):       39.039
                            User time (sec):       36.015
                          System time (sec):        3.024
                         Elapsed time (sec):       43.061
  
                   Maximum memory used (kb):      480656.
                   Average memory used (kb):           0.
  
                          Minor page faults:        53872
                          Major page faults:          123
                 Voluntary context switches:         5412
