 vasp.5.4.1 05Feb16 (build Apr 23 2022 14:15:44) complex                        
  
 executed on           IFC91_ompi date 2024.10.15  21:05:01
 running on   64 total cores
 distrk:  each k-point on   64 cores,    1 groups
 distr:  one band on NCORES_PER_BAND=   8 cores,    8 groups


--------------------------------------------------------------------------------------------------------


 INCAR:
 POTCAR:    PAW_PBE Mo 08Apr2002                  
 POTCAR:    PAW_PBE O 08Apr2002                   
 POTCAR:    PAW_PBE Li 17Jan2003                  
 POTCAR:    PAW_PBE Mo 08Apr2002                  
   VRHFIN =Mo: 4p5s4d                                                           
   LEXCH  = PE                                                                  
   EATOM  =   217.5176 eV,   15.9871 Ry                                         
                                                                                
   TITEL  = PAW_PBE Mo 08Apr2002                                                
   LULTRA =        F    use ultrasoft PP ?                                      
   IUNSCR =        1    unscreen: 0-lin 1-nonlin 2-no                           
   RPACOR =    2.200    partial core radius                                     
   POMASS =   95.940; ZVAL   =    6.000    mass and valenz                      
   RCORE  =    2.750    outmost cutoff radius                                   
   RWIGS  =    2.750; RWIGS  =    1.455    wigner-seitz radius (au A)           
   ENMAX  =  224.584; ENMIN  =  168.438 eV                                      
   RCLOC  =    2.111    cutoff for local pot                                    
   LCOR   =        T    correct aug charges                                     
   LPAW   =        T    paw PP                                                  
   EAUG   =  345.278                                                            
   DEXC   =    0.000                                                            
   RMAX   =    2.821    core radius for proj-oper                               
   RAUG   =    1.300    factor for augmentation sphere                          
   RDEP   =    2.815    radius for radial grids                                 
   RDEPT  =    2.211    core radius for aug-charge                              
                                                                                
   Atomic configuration                                                         
   12 entries                                                                   
     n  l   j            E        occ.                                          
     1  0  0.50    -19819.0341   2.0000                                         
     2  0  0.50     -2799.0127   2.0000                                         
     2  1  1.50     -2502.0276   6.0000                                         
     3  0  0.50      -476.4448   2.0000                                         
     3  1  1.50      -379.1496   6.0000                                         
     3  2  2.50      -220.9367  10.0000                                         
     4  0  0.50       -64.3378   2.0000                                         
     4  1  1.50       -38.4773   6.0000                                         
     4  2  2.50        -3.7535   5.0000                                         
     5  0  0.50        -4.0862   1.0000                                         
     5  1  0.50        -2.7701   0.0000                                         
     4  3  2.50        -1.3606   0.0000                                         
   Description                                                                  
     l       E           TYP  RCUT    TYP  RCUT                                 
     2     -3.7534765     23  2.500                                             
     2     -5.1140591     23  2.500                                             
     0     -4.0861560     23  2.600                                             
     0     13.6058260     23  2.600                                             
     1      5.4423304     23  2.750                                             
     1     27.2116520     23  2.750                                             
  local pseudopotential read in
  partial core-charges read in
  partial kinetic energy density read in
  atomic valenz-charges read in
  non local Contribution for L=           2  read in
    real space projection operators read in
  non local Contribution for L=           2  read in
    real space projection operators read in
  non local Contribution for L=           0  read in
    real space projection operators read in
  non local Contribution for L=           0  read in
    real space projection operators read in
  non local Contribution for L=           1  read in
    real space projection operators read in
  non local Contribution for L=           1  read in
    real space projection operators read in
    PAW grid and wavefunctions read in
 
   number of l-projection  operators is LMAX  =           6
   number of lm-projection operators is LMMAX =          18
 
 POTCAR:    PAW_PBE O 08Apr2002                   
   VRHFIN =O: s2p4                                                              
   LEXCH  = PE                                                                  
   EATOM  =   432.3788 eV,   31.7789 Ry                                         
                                                                                
   TITEL  = PAW_PBE O 08Apr2002                                                 
   LULTRA =        F    use ultrasoft PP ?                                      
   IUNSCR =        1    unscreen: 0-lin 1-nonlin 2-no                           
   RPACOR =    1.200    partial core radius                                     
   POMASS =   16.000; ZVAL   =    6.000    mass and valenz                      
   RCORE  =    1.520    outmost cutoff radius                                   
   RWIGS  =    1.550; RWIGS  =    0.820    wigner-seitz radius (au A)           
   ENMAX  =  400.000; ENMIN  =  300.000 eV                                      
   ICORE  =        2    local potential                                         
   LCOR   =        T    correct aug charges                                     
   LPAW   =        T    paw PP                                                  
   EAUG   =  605.392                                                            
   DEXC   =    0.000                                                            
   RMAX   =    1.553    core radius for proj-oper                               
   RAUG   =    1.300    factor for augmentation sphere                          
   RDEP   =    1.550    radius for radial grids                                 
   RDEPT  =    1.329    core radius for aug-charge                              
                                                                                
   Atomic configuration                                                         
    4 entries                                                                   
     n  l   j            E        occ.                                          
     1  0  0.50      -514.6923   2.0000                                         
     2  0  0.50       -23.9615   2.0000                                         
     2  1  0.50        -9.0305   4.0000                                         
     3  2  1.50        -9.5241   0.0000                                         
   Description                                                                  
     l       E           TYP  RCUT    TYP  RCUT                                 
     0    -23.9615318     23  1.200                                             
     0     -9.5240782     23  1.200                                             
     1     -9.0304911     23  1.520                                             
     1      8.1634956     23  1.520                                             
     2     -9.5240782      7  1.500                                             
  local pseudopotential read in
  partial core-charges read in
  partial kinetic energy density read in
  kinetic energy density of atom read in
  atomic valenz-charges read in
  non local Contribution for L=           0  read in
    real space projection operators read in
  non local Contribution for L=           0  read in
    real space projection operators read in
  non local Contribution for L=           1  read in
    real space projection operators read in
  non local Contribution for L=           1  read in
    real space projection operators read in
    PAW grid and wavefunctions read in
 
   number of l-projection  operators is LMAX  =           4
   number of lm-projection operators is LMMAX =           8
 
 POTCAR:    PAW_PBE Li 17Jan2003                  
   VRHFIN =Li: s1p0                                                             
   LEXCH  = PE                                                                  
   EATOM  =     5.3001 eV,    0.3895 Ry                                         
                                                                                
   TITEL  = PAW_PBE Li 17Jan2003                                                
   LULTRA =        F    use ultrasoft PP ?                                      
   IUNSCR =        1    unscreen: 0-lin 1-nonlin 2-no                           
   RPACOR =    1.500    partial core radius                                     
   POMASS =    7.010; ZVAL   =    1.000    mass and valenz                      
   RCORE  =    2.050    outmost cutoff radius                                   
   RWIGS  =    2.600; RWIGS  =    1.376    wigner-seitz radius (au A)           
   ENMAX  =  140.000; ENMIN  =  100.000 eV                                      
   ICORE  =        2    local potential                                         
   LCOR   =        T    correct aug charges                                     
   LPAW   =        T    paw PP                                                  
   EAUG   =  331.638                                                            
   DEXC   =    0.000                                                            
   RMAX   =    2.098    core radius for proj-oper                               
   RAUG   =    1.300    factor for augmentation sphere                          
   RDEP   =    2.094    radius for radial grids                                 
   RDEPT  =    1.810    core radius for aug-charge                              
                                                                                
   Atomic configuration                                                         
    4 entries                                                                   
     n  l   j            E        occ.                                          
     1  0  0.50       -51.8549   2.0000                                         
     2  0  0.50        -2.8742   1.0000                                         
     2  1  0.50        -1.3606   0.0000                                         
     3  2  1.50        -1.3606   0.0000                                         
   Description                                                                  
     l       E           TYP  RCUT    TYP  RCUT                                 
     0     -2.8742052     23  2.050                                             
     0     27.2116520     23  2.050                                             
     1     -1.3605826     23  2.050                                             
     2     -1.3605826     23  2.050                                             
  local pseudopotential read in
  partial core-charges read in
  partial kinetic energy density read in
  atomic valenz-charges read in
  non local Contribution for L=           0  read in
    real space projection operators read in
  non local Contribution for L=           0  read in
    real space projection operators read in
  non local Contribution for L=           1  read in
    real space projection operators read in
    PAW grid and wavefunctions read in
 
   number of l-projection  operators is LMAX  =           3
   number of lm-projection operators is LMMAX =           5
 
 Optimization of the real space projectors (new method)

 maximal supplied QI-value         = 13.61
 optimisation between [QCUT,QGAM] = [ 12.52, 25.04] = [ 43.88,175.51] Ry 
 Optimized for a Real-space Cutoff    1.56 Angstroem

   l    n(q)    QCUT    max X(q) W(low)/X(q) W(high)/X(q)  e(spline) 
   2     11    12.518    80.908    0.42E-03    0.30E-03    0.14E-05
   2     11    12.518    79.000    0.42E-03    0.30E-03    0.14E-05
   0     12    12.518    52.066    0.58E-04    0.50E-04    0.55E-06
   0     12    12.518    24.514    0.48E-04    0.41E-04    0.46E-06
   1     11    12.518    16.033    0.62E-04    0.13E-03    0.37E-06
   1     11    12.518    11.179    0.47E-04    0.10E-03    0.31E-06
 Optimization of the real space projectors (new method)

 maximal supplied QI-value         = 24.76
 optimisation between [QCUT,QGAM] = [ 12.38, 25.00] = [ 42.90,175.06] Ry 
 Optimized for a Real-space Cutoff    1.13 Angstroem

   l    n(q)    QCUT    max X(q) W(low)/X(q) W(high)/X(q)  e(spline) 
   0      8    12.378    20.381    0.16E-03    0.54E-05    0.27E-06
   0      8    12.378    15.268    0.17E-03    0.61E-05    0.29E-06
   1      8    12.378     5.964    0.38E-03    0.23E-03    0.28E-06
   1      8    12.378     5.382    0.33E-03    0.20E-03    0.25E-06
 Optimization of the real space projectors (new method)

 maximal supplied QI-value         = 18.33
 optimisation between [QCUT,QGAM] = [ 12.46, 24.93] = [ 43.51,174.03] Ry 
 Optimized for a Real-space Cutoff    1.13 Angstroem

   l    n(q)    QCUT    max X(q) W(low)/X(q) W(high)/X(q)  e(spline) 
   0      8    12.465    33.825    0.12E-03    0.29E-03    0.99E-07
   0      8    12.465     8.944    0.86E-04    0.22E-03    0.72E-07
   1      8    12.465     4.214    0.27E-03    0.11E-03    0.82E-07
  PAW_PBE Mo 08Apr2002                  :
 energy of atom  1       EATOM= -217.5176
 kinetic energy error for atom=    0.0005 (will be added to EATOM!!)
  PAW_PBE O 08Apr2002                   :
 energy of atom  2       EATOM= -432.3788
 kinetic energy error for atom=    0.0168 (will be added to EATOM!!)
  PAW_PBE Li 17Jan2003                  :
 energy of atom  3       EATOM=   -5.3001
 kinetic energy error for atom=    0.0000 (will be added to EATOM!!)
 
 
 POSCAR: Mo  O Li                                
  positions in cartesian coordinates
  No initial velocities read in
 exchange correlation table for  LEXCH =        8
   RHO(1)=    0.500       N(1)  =     2000
   RHO(2)=  100.500       N(2)  =     4000

 VTST: version 3.1, (03/28/14)

 CHAIN: initializing optimizer
 
 OPT: Using VASP Dynamics algorithm
 CHAIN: Read ICHAIN            0
 
 POSCAR: Mo  O Li                                
  positions in cartesian coordinates
  No initial velocities read in
 


--------------------------------------------------------------------------------------------------------


 ion  position               nearest neighbor table
   1  0.225  0.503  0.503-   9 1.98   5 2.01   7 2.03  10 2.11   8 2.14  12 2.15   3 2.43  13 2.59
                            14 2.93  14 2.94   3 3.06
   2  0.726  0.001  0.004-   7 1.98  11 2.01   9 2.03   8 2.11  10 2.14   6 2.15   4 2.43  14 2.59
                            13 2.93  13 2.94   4 3.06
   3  0.779  0.501  0.496-  11 1.98   7 2.01   5 2.03  12 2.11   6 2.14  10 2.15   1 2.43  13 2.59
                            14 2.93  14 2.94   1 3.06
   4  0.279  0.003  0.996-   5 1.98   9 2.01  11 2.03   6 2.11  12 2.14   8 2.15   2 2.43  14 2.59
                            13 2.93  13 2.94   2 3.06
   5  0.128  0.304  0.748-   4 1.98   1 2.01   3 2.03  13 2.14
   6  0.891  0.814  0.777-  13 1.94   4 2.11   3 2.14   2 2.15  14 2.18
   7  0.876  0.700  0.251-   2 1.98   3 2.01   1 2.03  13 2.15
   8  0.113  0.190  0.222-  13 1.94   2 2.11   1 2.14   4 2.15  14 2.18
   9  0.376  0.804  0.751-   1 1.98   4 2.01   2 2.03  14 2.14
  10  0.613  0.314  0.722-  14 1.94   1 2.11   2 2.14   3 2.15  13 2.18
  11  0.628  0.200  0.248-   3 1.98   2 2.01   4 2.03  14 2.15
  12  0.391  0.690  0.277-  14 1.94   3 2.11   4 2.14   1 2.15  13 2.18
  13  0.003  0.502  1.000-   8 1.94   6 1.94   5 2.14   7 2.15  12 2.18  10 2.18   1 2.59   3 2.59
                             4 2.93   2 2.93   4 2.94   2 2.94
  14  0.502  0.002  0.500-  12 1.94  10 1.94   9 2.14  11 2.15   8 2.18   6 2.18   2 2.59   4 2.59
                             1 2.93   3 2.93   3 2.94   1 2.94
 
  LATTYP: Found a triclinic cell.
 ALAT       =     5.4849548375
 B/A-ratio  =     1.0546754172
 C/A-ratio  =     0.9132811083
 COS(alpha) =     0.0000375218
 COS(beta)  =     0.0000536784
 COS(gamma) =     0.4633556943
  
  Lattice vectors:
  
 A1 = (   5.4849395588,  -0.0002404682,   0.0129440296)
 A2 = (   2.6683366049,   0.0012952240,   5.1326828523)
 A3 = (   0.0000458499,  -5.0093054221,   0.0014520945)


Analysis of symmetry for initial positions (statically):
=====================================================================
 Subroutine PRICEL returns:
 Original cell was already a primitive cell.
 

 Routine SETGRP: Setting up the symmetry group for a 
 triclinic supercell.


 Subroutine GETGRP returns: Found  1 space group operations
 (whereof  1 operations were pure point group operations)
 out of a pool of  2 trial point group operations.


The static configuration has the point symmetry C_1 .


Analysis of symmetry for dynamics (positions and initial velocities):
=====================================================================
 Subroutine PRICEL returns:
 Original cell was already a primitive cell.
 

 Routine SETGRP: Setting up the symmetry group for a 
 triclinic supercell.


 Subroutine GETGRP returns: Found  1 space group operations
 (whereof  1 operations were pure point group operations)
 out of a pool of  2 trial point group operations.


The dynamic configuration has the point symmetry C_1 .


Analysis of structural, dynamic, and magnetic symmetry:
=====================================================================
 Subroutine PRICEL returns:
 Original cell was already a primitive cell.
 

 Routine SETGRP: Setting up the symmetry group for a 
 triclinic supercell.


 Subroutine GETGRP returns: Found  1 space group operations
 (whereof  1 operations were pure point group operations)
 out of a pool of  2 trial point group operations.


The magnetic configuration has the point symmetry C_1 .


 Subroutine INISYM returns: Found  1 space group operations
 (whereof  1 operations are pure point group operations),
 and found     1 'primitive' translations

 
 
 KPOINTS: KPOINTS created by Atomic Simulation Env

Automatic generation of k-mesh.
Space group operators:
 irot       det(A)        alpha          n_x          n_y          n_z        tau_x        tau_y        tau_z
    1     1.000000     0.000001     1.000000     0.000000     0.000000     0.000000     0.000000     0.000000
 
 Subroutine IBZKPT returns following result:
 ===========================================
 
 Found    172 irreducible k-points:
 
 Following reciprocal coordinates:
            Coordinates               Weight
  0.000000  0.000000  0.000000      1.000000
  0.142857 -0.000000  0.000000      2.000000
  0.285714 -0.000000  0.000000      2.000000
  0.428571 -0.000000  0.000000      2.000000
  0.000000  0.142857 -0.000000      2.000000
  0.142857  0.142857  0.000000      2.000000
  0.285714  0.142857  0.000000      2.000000
  0.428571  0.142857 -0.000000      2.000000
 -0.428571  0.142857 -0.000000      2.000000
 -0.285714  0.142857 -0.000000      2.000000
 -0.142857  0.142857 -0.000000      2.000000
 -0.000000  0.285714  0.000000      2.000000
  0.142857  0.285714  0.000000      2.000000
  0.285714  0.285714  0.000000      2.000000
  0.428571  0.285714  0.000000      2.000000
 -0.428571  0.285714 -0.000000      2.000000
 -0.285714  0.285714  0.000000      2.000000
 -0.142857  0.285714 -0.000000      2.000000
  0.000000  0.428571 -0.000000      2.000000
  0.142857  0.428571  0.000000      2.000000
  0.285714  0.428571  0.000000      2.000000
  0.428571  0.428571 -0.000000      2.000000
 -0.428571  0.428571 -0.000000      2.000000
 -0.285714  0.428571 -0.000000      2.000000
 -0.142857  0.428571 -0.000000      2.000000
 -0.000000 -0.000000  0.142857      2.000000
  0.142857  0.000000  0.142857      2.000000
  0.285714 -0.000000  0.142857      2.000000
  0.428571 -0.000000  0.142857      2.000000
 -0.428571  0.000000  0.142857      2.000000
 -0.285714  0.000000  0.142857      2.000000
 -0.142857  0.000000  0.142857      2.000000
  0.000000  0.142857  0.142857      2.000000
  0.142857  0.142857  0.142857      2.000000
  0.285714  0.142857  0.142857      2.000000
  0.428571  0.142857  0.142857      2.000000
 -0.428571  0.142857  0.142857      2.000000
 -0.285714  0.142857  0.142857      2.000000
 -0.142857  0.142857  0.142857      2.000000
  0.000000  0.285714  0.142857      2.000000
  0.142857  0.285714  0.142857      2.000000
  0.285714  0.285714  0.142857      2.000000
  0.428571  0.285714  0.142857      2.000000
 -0.428571  0.285714  0.142857      2.000000
 -0.285714  0.285714  0.142857      2.000000
 -0.142857  0.285714  0.142857      2.000000
 -0.000000  0.428571  0.142857      2.000000
  0.142857  0.428571  0.142857      2.000000
  0.285714  0.428571  0.142857      2.000000
  0.428571  0.428571  0.142857      2.000000
 -0.428571  0.428571  0.142857      2.000000
 -0.285714  0.428571  0.142857      2.000000
 -0.142857  0.428571  0.142857      2.000000
  0.000000 -0.428571  0.142857      2.000000
  0.142857 -0.428571  0.142857      2.000000
  0.285714 -0.428571  0.142857      2.000000
  0.428571 -0.428571  0.142857      2.000000
 -0.428571 -0.428571  0.142857      2.000000
 -0.285714 -0.428571  0.142857      2.000000
 -0.142857 -0.428571  0.142857      2.000000
  0.000000 -0.285714  0.142857      2.000000
  0.142857 -0.285714  0.142857      2.000000
  0.285714 -0.285714  0.142857      2.000000
  0.428571 -0.285714  0.142857      2.000000
 -0.428571 -0.285714  0.142857      2.000000
 -0.285714 -0.285714  0.142857      2.000000
 -0.142857 -0.285714  0.142857      2.000000
 -0.000000 -0.142857  0.142857      2.000000
  0.142857 -0.142857  0.142857      2.000000
  0.285714 -0.142857  0.142857      2.000000
  0.428571 -0.142857  0.142857      2.000000
 -0.428571 -0.142857  0.142857      2.000000
 -0.285714 -0.142857  0.142857      2.000000
 -0.142857 -0.142857  0.142857      2.000000
 -0.000000  0.000000  0.285714      2.000000
  0.142857  0.000000  0.285714      2.000000
  0.285714  0.000000  0.285714      2.000000
  0.428571 -0.000000  0.285714      2.000000
 -0.428571  0.000000  0.285714      2.000000
 -0.285714  0.000000  0.285714      2.000000
 -0.142857  0.000000  0.285714      2.000000
 -0.000000  0.142857  0.285714      2.000000
  0.142857  0.142857  0.285714      2.000000
  0.285714  0.142857  0.285714      2.000000
  0.428571  0.142857  0.285714      2.000000
 -0.428571  0.142857  0.285714      2.000000
 -0.285714  0.142857  0.285714      2.000000
 -0.142857  0.142857  0.285714      2.000000
 -0.000000  0.285714  0.285714      2.000000
  0.142857  0.285714  0.285714      2.000000
  0.285714  0.285714  0.285714      2.000000
  0.428571  0.285714  0.285714      2.000000
 -0.428571  0.285714  0.285714      2.000000
 -0.285714  0.285714  0.285714      2.000000
 -0.142857  0.285714  0.285714      2.000000
 -0.000000  0.428571  0.285714      2.000000
  0.142857  0.428571  0.285714      2.000000
  0.285714  0.428571  0.285714      2.000000
  0.428571  0.428571  0.285714      2.000000
 -0.428571  0.428571  0.285714      2.000000
 -0.285714  0.428571  0.285714      2.000000
 -0.142857  0.428571  0.285714      2.000000
  0.000000 -0.428571  0.285714      2.000000
  0.142857 -0.428571  0.285714      2.000000
  0.285714 -0.428571  0.285714      2.000000
  0.428571 -0.428571  0.285714      2.000000
 -0.428571 -0.428571  0.285714      2.000000
 -0.285714 -0.428571  0.285714      2.000000
 -0.142857 -0.428571  0.285714      2.000000
  0.000000 -0.285714  0.285714      2.000000
  0.142857 -0.285714  0.285714      2.000000
  0.285714 -0.285714  0.285714      2.000000
  0.428571 -0.285714  0.285714      2.000000
 -0.428571 -0.285714  0.285714      2.000000
 -0.285714 -0.285714  0.285714      2.000000
 -0.142857 -0.285714  0.285714      2.000000
  0.000000 -0.142857  0.285714      2.000000
  0.142857 -0.142857  0.285714      2.000000
  0.285714 -0.142857  0.285714      2.000000
  0.428571 -0.142857  0.285714      2.000000
 -0.428571 -0.142857  0.285714      2.000000
 -0.285714 -0.142857  0.285714      2.000000
 -0.142857 -0.142857  0.285714      2.000000
  0.000000 -0.000000  0.428571      2.000000
  0.142857  0.000000  0.428571      2.000000
  0.285714  0.000000  0.428571      2.000000
  0.428571 -0.000000  0.428571      2.000000
 -0.428571 -0.000000  0.428571      2.000000
 -0.285714 -0.000000  0.428571      2.000000
 -0.142857 -0.000000  0.428571      2.000000
  0.000000  0.142857  0.428571      2.000000
  0.142857  0.142857  0.428571      2.000000
  0.285714  0.142857  0.428571      2.000000
  0.428571  0.142857  0.428571      2.000000
 -0.428571  0.142857  0.428571      2.000000
 -0.285714  0.142857  0.428571      2.000000
 -0.142857  0.142857  0.428571      2.000000
  0.000000  0.285714  0.428571      2.000000
  0.142857  0.285714  0.428571      2.000000
  0.285714  0.285714  0.428571      2.000000
  0.428571  0.285714  0.428571      2.000000
 -0.428571  0.285714  0.428571      2.000000
 -0.285714  0.285714  0.428571      2.000000
 -0.142857  0.285714  0.428571      2.000000
  0.000000  0.428571  0.428571      2.000000
  0.142857  0.428571  0.428571      2.000000
  0.285714  0.428571  0.428571      2.000000
  0.428571  0.428571  0.428571      2.000000
 -0.428571  0.428571  0.428571      2.000000
 -0.285714  0.428571  0.428571      2.000000
 -0.142857  0.428571  0.428571      2.000000
  0.000000 -0.428571  0.428571      2.000000
  0.142857 -0.428571  0.428571      2.000000
  0.285714 -0.428571  0.428571      2.000000
  0.428571 -0.428571  0.428571      2.000000
 -0.428571 -0.428571  0.428571      2.000000
 -0.285714 -0.428571  0.428571      2.000000
 -0.142857 -0.428571  0.428571      2.000000
  0.000000 -0.285714  0.428571      2.000000
  0.142857 -0.285714  0.428571      2.000000
  0.285714 -0.285714  0.428571      2.000000
  0.428571 -0.285714  0.428571      2.000000
 -0.428571 -0.285714  0.428571      2.000000
 -0.285714 -0.285714  0.428571      2.000000
 -0.142857 -0.285714  0.428571      2.000000
  0.000000 -0.142857  0.428571      2.000000
  0.142857 -0.142857  0.428571      2.000000
  0.285714 -0.142857  0.428571      2.000000
  0.428571 -0.142857  0.428571      2.000000
 -0.428571 -0.142857  0.428571      2.000000
 -0.285714 -0.142857  0.428571      2.000000
 -0.142857 -0.142857  0.428571      2.000000
 
 Following cartesian coordinates:
            Coordinates               Weight
  0.000000  0.000000  0.000000      1.000000
  0.026012  0.000004  0.014310      2.000000
  0.052023  0.000009  0.028620      2.000000
  0.078035  0.000013  0.042930      2.000000
  0.000001  0.028518 -0.000008      2.000000
  0.026013  0.028523  0.014302      2.000000
  0.052024  0.028527  0.028612      2.000000
  0.078036  0.028532  0.042923      2.000000
 -0.078033  0.028505 -0.042938      2.000000
 -0.052022  0.028510 -0.028628      2.000000
 -0.026010  0.028514 -0.014318      2.000000
  0.000003  0.057037 -0.000016      2.000000
  0.026014  0.057041  0.014294      2.000000
  0.052026  0.057045  0.028605      2.000000
  0.078037  0.057050  0.042915      2.000000
 -0.078032  0.057024 -0.042946      2.000000
 -0.052021  0.057028 -0.028636      2.000000
 -0.026009  0.057032 -0.014326      2.000000
  0.000004  0.085555 -0.000024      2.000000
  0.026015  0.085559  0.014287      2.000000
  0.052027  0.085564  0.028597      2.000000
  0.078039  0.085568  0.042907      2.000000
 -0.078031  0.085542 -0.042954      2.000000
 -0.052019  0.085546 -0.028644      2.000000
 -0.026008  0.085551 -0.014334      2.000000
 -0.000066  0.000008  0.027867      2.000000
  0.025946  0.000012  0.042177      2.000000
  0.051957  0.000017  0.056487      2.000000
  0.077969  0.000021  0.070798      2.000000
 -0.078100 -0.000005 -0.015063      2.000000
 -0.052089 -0.000001 -0.000753      2.000000
 -0.026077  0.000004  0.013557      2.000000
 -0.000064  0.028526  0.027859      2.000000
  0.025947  0.028531  0.042169      2.000000
  0.051959  0.028535  0.056479      2.000000
  0.077970  0.028540  0.070790      2.000000
 -0.078099  0.028513 -0.015071      2.000000
 -0.052088  0.028518 -0.000761      2.000000
 -0.026076  0.028522  0.013549      2.000000
 -0.000063  0.057045  0.027851      2.000000
  0.025948  0.057049  0.042161      2.000000
  0.051960  0.057054  0.056472      2.000000
  0.077971  0.057058  0.070782      2.000000
 -0.078098  0.057032 -0.015079      2.000000
 -0.052086  0.057036 -0.000769      2.000000
 -0.026075  0.057040  0.013541      2.000000
 -0.000062  0.085563  0.027843      2.000000
  0.025950  0.085568  0.042154      2.000000
  0.051961  0.085572  0.056464      2.000000
  0.077973  0.085576  0.070774      2.000000
 -0.078097  0.085550 -0.015087      2.000000
 -0.052085  0.085554 -0.000777      2.000000
 -0.026074  0.085559  0.013533      2.000000
 -0.000070 -0.085547  0.027891      2.000000
  0.025942 -0.085543  0.042201      2.000000
  0.051954 -0.085538  0.056511      2.000000
  0.077965 -0.085534  0.070821      2.000000
 -0.078104 -0.085560 -0.015040      2.000000
 -0.052093 -0.085556 -0.000730      2.000000
 -0.026081 -0.085551  0.013580      2.000000
 -0.000068 -0.057029  0.027883      2.000000
  0.025943 -0.057024  0.042193      2.000000
  0.051955 -0.057020  0.056503      2.000000
  0.077966 -0.057015  0.070813      2.000000
 -0.078103 -0.057042 -0.015048      2.000000
 -0.052091 -0.057037 -0.000738      2.000000
 -0.026080 -0.057033  0.013573      2.000000
 -0.000067 -0.028510  0.027875      2.000000
  0.025945 -0.028506  0.042185      2.000000
  0.051956 -0.028502  0.056495      2.000000
  0.077968 -0.028497  0.070805      2.000000
 -0.078102 -0.028523 -0.015056      2.000000
 -0.052090 -0.028519 -0.000745      2.000000
 -0.026079 -0.028515  0.013565      2.000000
 -0.000132  0.000016  0.055734      2.000000
  0.025880  0.000021  0.070044      2.000000
  0.051892  0.000025  0.084354      2.000000
  0.077903  0.000029  0.098665      2.000000
 -0.078166  0.000003  0.012804      2.000000
 -0.052155  0.000007  0.027114      2.000000
 -0.026143  0.000012  0.041424      2.000000
 -0.000130  0.028535  0.055726      2.000000
  0.025881  0.028539  0.070036      2.000000
  0.051893  0.028543  0.084347      2.000000
  0.077904  0.028548  0.098657      2.000000
 -0.078165  0.028521  0.012796      2.000000
 -0.052153  0.028526  0.027106      2.000000
 -0.026142  0.028530  0.041416      2.000000
 -0.000129  0.057053  0.055718      2.000000
  0.025883  0.057057  0.070028      2.000000
  0.051894  0.057062  0.084339      2.000000
  0.077906  0.057066  0.098649      2.000000
 -0.078164  0.057040  0.012788      2.000000
 -0.052152  0.057044  0.027098      2.000000
 -0.026141  0.057048  0.041408      2.000000
 -0.000128  0.085571  0.055710      2.000000
  0.025884  0.085576  0.070021      2.000000
  0.051895  0.085580  0.084331      2.000000
  0.077907  0.085584  0.098641      2.000000
 -0.078162  0.085558  0.012780      2.000000
 -0.052151  0.085562  0.027090      2.000000
 -0.026139  0.085567  0.041400      2.000000
 -0.000135 -0.085539  0.055758      2.000000
  0.025876 -0.085535  0.070068      2.000000
  0.051888 -0.085530  0.084378      2.000000
  0.077899 -0.085526  0.098688      2.000000
 -0.078170 -0.085552  0.012827      2.000000
 -0.052158 -0.085548  0.027137      2.000000
 -0.026147 -0.085543  0.041447      2.000000
 -0.000134 -0.057021  0.055750      2.000000
  0.025878 -0.057016  0.070060      2.000000
  0.051889 -0.057012  0.084370      2.000000
  0.077901 -0.057007  0.098680      2.000000
 -0.078169 -0.057034  0.012819      2.000000
 -0.052157 -0.057029  0.027129      2.000000
 -0.026146 -0.057025  0.041440      2.000000
 -0.000133 -0.028502  0.055742      2.000000
  0.025879 -0.028498  0.070052      2.000000
  0.051890 -0.028493  0.084362      2.000000
  0.077902 -0.028489  0.098672      2.000000
 -0.078168 -0.028515  0.012811      2.000000
 -0.052156 -0.028511  0.027122      2.000000
 -0.026144 -0.028507  0.041432      2.000000
 -0.000197  0.000024  0.083601      2.000000
  0.025814  0.000029  0.097911      2.000000
  0.051826  0.000033  0.112221      2.000000
  0.077837  0.000037  0.126532      2.000000
 -0.078232  0.000011  0.040671      2.000000
 -0.052220  0.000015  0.054981      2.000000
 -0.026209  0.000020  0.069291      2.000000
 -0.000196  0.028543  0.083593      2.000000
  0.025816  0.028547  0.097903      2.000000
  0.051827  0.028551  0.112214      2.000000
  0.077839  0.028556  0.126524      2.000000
 -0.078231  0.028529  0.040663      2.000000
 -0.052219  0.028534  0.054973      2.000000
 -0.026208  0.028538  0.069283      2.000000
 -0.000195  0.057061  0.083585      2.000000
  0.025817  0.057065  0.097896      2.000000
  0.051828  0.057070  0.112206      2.000000
  0.077840  0.057074  0.126516      2.000000
 -0.078229  0.057048  0.040655      2.000000
 -0.052218  0.057052  0.054965      2.000000
 -0.026206  0.057057  0.069275      2.000000
 -0.000193  0.085579  0.083578      2.000000
  0.025818  0.085584  0.097888      2.000000
  0.051830  0.085588  0.112198      2.000000
  0.077841  0.085592  0.126508      2.000000
 -0.078228  0.085566  0.040647      2.000000
 -0.052217  0.085571  0.054957      2.000000
 -0.026205  0.085575  0.069267      2.000000
 -0.000201 -0.085531  0.083625      2.000000
  0.025810 -0.085526  0.097935      2.000000
  0.051822 -0.085522  0.112245      2.000000
  0.077834 -0.085518  0.126555      2.000000
 -0.078236 -0.085544  0.040694      2.000000
 -0.052224 -0.085540  0.055004      2.000000
 -0.026213 -0.085535  0.069314      2.000000
 -0.000200 -0.057012  0.083617      2.000000
  0.025812 -0.057008  0.097927      2.000000
  0.051823 -0.057004  0.112237      2.000000
  0.077835 -0.056999  0.126547      2.000000
 -0.078235 -0.057026  0.040686      2.000000
 -0.052223 -0.057021  0.054996      2.000000
 -0.026211 -0.057017  0.069307      2.000000
 -0.000199 -0.028494  0.083609      2.000000
  0.025813 -0.028490  0.097919      2.000000
  0.051825 -0.028485  0.112229      2.000000
  0.077836 -0.028481  0.126539      2.000000
 -0.078233 -0.028507  0.040678      2.000000
 -0.052222 -0.028503  0.054989      2.000000
 -0.026210 -0.028499  0.069299      2.000000
 


--------------------------------------------------------------------------------------------------------




 Dimension of arrays:
   k-points           NKPTS =    172   k-points in BZ     NKDIM =    172   number of bands    NBANDS=     56
   number of dos      NEDOS =    301   number of ions     NIONS =     14
   non local maximal  LDIM  =      6   non local SUM 2l+1 LMDIM =     18
   total plane-waves  NPLWV =  38880
   max r-space proj   IRMAX =   4442   max aug-charges    IRDMAX=  17920
   dimension x,y,z NGX =    36 NGY =   30 NGZ =   36
   dimension x,y,z NGXF=    72 NGYF=   60 NGZF=   72
   support grid    NGXF=    72 NGYF=   60 NGZF=   72
   ions per type =               4   8   2
 NGX,Y,Z   is equivalent  to a cutoff of  10.91,  9.96, 10.24 a.u.
 NGXF,Y,Z  is equivalent  to a cutoff of  21.82, 19.91, 20.48 a.u.


 I would recommend the setting:
   dimension x,y,z NGX =    33 NGY =   30 NGZ =   35
 SYSTEM =  unknown system                          
 POSCAR =  Mo  O Li                                

 Startparameter for this run:
   NWRITE =      2    write-flag & timer
   PREC   = normal    normal or accurate (medium, high low for compatibility)
   ISTART =      0    job   : 0-new  1-cont  2-samecut
   ICHARG =      2    charge: 1-file 2-atom 10-const
   ISPIN  =      2    spin polarized calculation?
   LNONCOLLINEAR =      F non collinear calculations
   LSORBIT =      F    spin-orbit coupling
   INIWAV =      1    electr: 0-lowe 1-rand  2-diag
   LASPH  =      F    aspherical Exc in radial PAW
   METAGGA=      F    non-selfconsistent MetaGGA calc.

 Electronic Relaxation 1
   ENCUT  =  600.0 eV  44.10 Ry    6.64 a.u.  10.95 10.00 11.67*2*pi/ulx,y,z
   ENINI  =  600.0     initial cutoff
   ENAUG  =  605.4 eV  augmentation charge cutoff
   NELM   =     60;   NELMIN=  2; NELMDL=-12     # of ELM steps 
   EDIFF  = 0.1E-05   stopping-criterion for ELM
   LREAL  =      T    real-space projection
   NLSPLINE    = F    spline interpolate recip. space projectors
   LCOMPAT=      F    compatible to vasp.4.4
   GGA_COMPAT  = T    GGA compatible to vasp.4.4-vasp.4.6
   LMAXPAW     = -100 max onsite density
   LMAXMIX     =    2 max onsite mixed and CHGCAR
   VOSKOWN=      0    Vosko Wilk Nusair interpolation
   ROPT   =   -0.00050  -0.00050  -0.00050
 Ionic relaxation
   EDIFFG = 0.1E-04   stopping-criterion for IOM
   NSW    =      0    number of steps for IOM
   NBLOCK =      1;   KBLOCK =      1    inner block; outer block 
   IBRION =     -1    ionic relax: 0-MD 1-quasi-New 2-CG
   NFREE  =      0    steps in history (QN), initial steepest desc. (CG)
   ISIF   =      2    stress and relaxation
   IWAVPR =     10    prediction:  0-non 1-charg 2-wave 3-comb
   ISYM   =      2    0-nonsym 1-usesym 2-fastsym
   LCORR  =      T    Harris-Foulkes like correction to forces

   POTIM  = 0.5000    time-step for ionic-motion
   TEIN   =    0.0    initial temperature
   TEBEG  =    0.0;   TEEND  =   0.0 temperature during run
   SMASS  =  -3.00    Nose mass-parameter (am)
   estimated Nose-frequenzy (Omega)   =  0.10E-29 period in steps =****** mass=  -0.688E-27a.u.
   SCALEE = 1.0000    scale energy and forces
   NPACO  =    256;   APACO  = 16.0  distance and # of slots for P.C.
   PSTRESS=    0.0 pullay stress

  Mass of Ions in am
   POMASS =  95.94 16.00  7.01
  Ionic Valenz
   ZVAL   =   6.00  6.00  1.00
  Atomic Wigner-Seitz radii
   RWIGS  =  -1.00 -1.00 -1.00
  virtual crystal weights 
   VCA    =   1.00  1.00  1.00
   NELECT =      74.0000    total number of electrons
   NUPDOWN=      -1.0000    fix difference up-down

 DOS related values:
   EMIN   =  10.00;   EMAX   =-10.00  energy-range for DOS
   EFERMI =   0.00
   ISMEAR =     0;   SIGMA  =   0.03  broadening in eV -4-tet -1-fermi 0-gaus

 Electronic relaxation 2 (details)
   IALGO  =     48    algorithm
   LDIAG  =      T    sub-space diagonalisation (order eigenvalues)
   LSUBROT=      F    optimize rotation matrix (better conditioning)
   TURBO    =      0    0=normal 1=particle mesh
   IRESTART =      0    0=no restart 2=restart with 2 vectors
   NREBOOT  =      0    no. of reboots
   NMIN     =      0    reboot dimension
   EREF     =   0.00    reference energy to select bands
   IMIX   =      4    mixing-type and parameters
     AMIX     =   0.40;   BMIX     =  1.00
     AMIX_MAG =   1.60;   BMIX_MAG =  1.00
     AMIN     =   0.10
     WC   =   100.;   INIMIX=   1;  MIXPRE=   1;  MAXMIX= -45

 Intra band minimization:
   WEIMIN = 0.0000     energy-eigenvalue tresh-hold
   EBREAK =  0.45E-08  absolut break condition
   DEPER  =   0.30     relativ break condition  

   TIME   =   0.40     timestep for ELM

  volume/ion in A,a.u.               =      10.06        67.89
  Fermi-wavevector in a.u.,A,eV,Ry     =   1.320987  2.496303 23.742253  1.745006
  Thomas-Fermi vector in A             =   2.450773
 
 Write flags
   LWAVE  =      F    write WAVECAR
   LCHARG =      T    write CHGCAR
   LVTOT  =      F    write LOCPOT, total local potential
   LVHAR  =      F    write LOCPOT, Hartree potential only
   LELF   =      F    write electronic localiz. function (ELF)
   LORBIT =     12    0 simple, 1 ext, 2 COOP (PROOUT)


 Dipole corrections
   LMONO  =      F    monopole corrections only (constant potential shift)
   LDIPOL =      F    correct potential (dipole corrections)
   IDIPOL =      0    1-x, 2-y, 3-z, 4-all directions 
   EPSILON=  1.0000000 bulk dielectric constant

 Exchange correlation treatment:
   GGA     =    PE    GGA type
   LEXCH   =     8    internal setting for exchange type
   VOSKOWN=      0    Vosko Wilk Nusair interpolation
   LHFCALC =     F    Hartree Fock is set to
   LHFONE  =     F    Hartree Fock one center treatment
   AEXX    =    0.0000 exact exchange contribution

 Linear response parameters
   LEPSILON=     F    determine dielectric tensor
   LRPA    =     F    only Hartree local field effects (RPA)
   LNABLA  =     F    use nabla operator in PAW spheres
   LVEL    =     F    velocity operator in full k-point grid
   LINTERFAST=   F  fast interpolation
   KINTER  =     0    interpolate to denser k-point grid
   CSHIFT  =0.1000    complex shift for real part using Kramers Kronig
   OMEGAMAX=  -1.0    maximum frequency
   DEG_THRESHOLD= 0.2000000E-02 threshold for treating states as degnerate
   RTIME   =    0.100 relaxation time in fs

 Orbital magnetization related:
   ORBITALMAG=     F  switch on orbital magnetization
   LCHIMAG   =     F  perturbation theory with respect to B field
   DQ        =  0.001000  dq finite difference perturbation B field



--------------------------------------------------------------------------------------------------------


 Static calculation
 charge density and potential will be updated during run
 spin polarized calculation
 RMM-DIIS sequential band-by-band
 perform sub-space diagonalisation
    before iterative eigenvector-optimisation
 modified Broyden-mixing scheme, WC =      100.0
 initial mixing is a Kerker type mixing with AMIX =  0.4000 and BMIX =      1.0000
 Hartree-type preconditioning will be used
 using additional bands           19
 real space projection scheme for non local part
 use partial core corrections
 calculate Harris-corrections to forces 
   (improved forces if not selfconsistent)
 use gradient corrections 
 use of overlap-Matrix (Vanderbilt PP)
 Gauss-broadening in eV      SIGMA  =   0.03


--------------------------------------------------------------------------------------------------------


  energy-cutoff  :      600.00
  volume of cell :      140.85
      direct lattice vectors                 reciprocal lattice vectors
     5.484939559 -0.000240468  0.012944030     0.182081020  0.000030704  0.100171104
    -0.000045850  5.009305422 -0.001452094     0.000008882  0.199628459 -0.000054993
    -2.816602954  0.001535692  5.119738823    -0.000460346  0.000056542  0.195069189

  length of vectors
     5.484954837  5.009305633  5.843370617     0.207816623  0.199628466  0.195069741


 
 k-points in units of 2pi/SCALE and weight: KPOINTS created by Atomic Simulation Env
   0.00000000  0.00000000  0.00000000       0.003
   0.02601157  0.00000439  0.01431016       0.006
   0.05202315  0.00000877  0.02862032       0.006
   0.07803472  0.00001316  0.04293047       0.006
   0.00000127  0.02851835 -0.00000786       0.006
   0.02601284  0.02852274  0.01430230       0.006
   0.05202442  0.02852712  0.02861246       0.006
   0.07803599  0.02853151  0.04292262       0.006
  -0.07803345  0.02850519 -0.04293833       0.006
  -0.05202188  0.02850958 -0.02862817       0.006
  -0.02601031  0.02851396 -0.01431801       0.006
   0.00000254  0.05703670 -0.00001571       0.006
   0.02601411  0.05704109  0.01429445       0.006
   0.05202569  0.05704548  0.02860460       0.006
   0.07803726  0.05704986  0.04291476       0.006
  -0.07803219  0.05702354 -0.04294619       0.006
  -0.05202061  0.05702793 -0.02863603       0.006
  -0.02600904  0.05703232 -0.01432587       0.006
   0.00000381  0.08555505 -0.00002357       0.006
   0.02601538  0.08555944  0.01428659       0.006
   0.05202696  0.08556383  0.02859675       0.006
   0.07803853  0.08556821  0.04290690       0.006
  -0.07803092  0.08554189 -0.04295404       0.006
  -0.05201934  0.08554628 -0.02864388       0.006
  -0.02600777  0.08555067 -0.01433373       0.006
  -0.00006576  0.00000808  0.02786703       0.006
   0.02594581  0.00001246  0.04217718       0.006
   0.05195738  0.00001685  0.05648734       0.006
   0.07796896  0.00002124  0.07079750       0.006
  -0.07810049 -0.00000508 -0.01506345       0.006
  -0.05208891 -0.00000070 -0.00075329       0.006
  -0.02607734  0.00000369  0.01355687       0.006
  -0.00006449  0.02852643  0.02785917       0.006
   0.02594708  0.02853082  0.04216933       0.006
   0.05195865  0.02853520  0.05647949       0.006
   0.07797023  0.02853959  0.07078964       0.006
  -0.07809922  0.02851327 -0.01507130       0.006
  -0.05208764  0.02851766 -0.00076114       0.006
  -0.02607607  0.02852204  0.01354901       0.006
  -0.00006323  0.05704478  0.02785131       0.006
   0.02594835  0.05704917  0.04216147       0.006
   0.05195992  0.05705355  0.05647163       0.006
   0.07797150  0.05705794  0.07078179       0.006
  -0.07809795  0.05703162 -0.01507916       0.006
  -0.05208637  0.05703601 -0.00076900       0.006
  -0.02607480  0.05704039  0.01354116       0.006
  -0.00006196  0.08556313  0.02784346       0.006
   0.02594962  0.08556752  0.04215362       0.006
   0.05196119  0.08557190  0.05646377       0.006
   0.07797277  0.08557629  0.07077393       0.006
  -0.07809668  0.08554997 -0.01508701       0.006
  -0.05208511  0.08555436 -0.00077686       0.006
  -0.02607353  0.08555874  0.01353330       0.006
  -0.00006957 -0.08554698  0.02789060       0.006
   0.02594200 -0.08554259  0.04220075       0.006
   0.05195358 -0.08553820  0.05651091       0.006
   0.07796515 -0.08553382  0.07082107       0.006
  -0.07810429 -0.08556014 -0.01503988       0.006
  -0.05209272 -0.08555575 -0.00072972       0.006
  -0.02608114 -0.08555136  0.01358044       0.006
  -0.00006830 -0.05702863  0.02788274       0.006
   0.02594327 -0.05702424  0.04219290       0.006
   0.05195485 -0.05701985  0.05650305       0.006
   0.07796642 -0.05701547  0.07081321       0.006
  -0.07810302 -0.05704178 -0.01504773       0.006
  -0.05209145 -0.05703740 -0.00073758       0.006
  -0.02607988 -0.05703301  0.01357258       0.006
  -0.00006703 -0.02851027  0.02787488       0.006
   0.02594454 -0.02850589  0.04218504       0.006
   0.05195612 -0.02850150  0.05649520       0.006
   0.07796769 -0.02849711  0.07080536       0.006
  -0.07810176 -0.02852343 -0.01505559       0.006
  -0.05209018 -0.02851905 -0.00074543       0.006
  -0.02607861 -0.02851466  0.01356473       0.006
  -0.00013153  0.00001615  0.05573405       0.006
   0.02588005  0.00002054  0.07004421       0.006
   0.05189162  0.00002493  0.08435437       0.006
   0.07790320  0.00002931  0.09866453       0.006
  -0.07816625  0.00000300  0.01280358       0.006
  -0.05215468  0.00000738  0.02711374       0.006
  -0.02614310  0.00001177  0.04142390       0.006
  -0.00013026  0.02853451  0.05572620       0.006
   0.02588132  0.02853889  0.07003636       0.006
   0.05189289  0.02854328  0.08434651       0.006
   0.07790446  0.02854767  0.09865667       0.006
  -0.07816498  0.02852135  0.01279572       0.006
  -0.05215341  0.02852573  0.02710588       0.006
  -0.02614183  0.02853012  0.04141604       0.006
  -0.00012899  0.05705286  0.05571834       0.006
   0.02588258  0.05705724  0.07002850       0.006
   0.05189416  0.05706163  0.08433866       0.006
   0.07790573  0.05706602  0.09864882       0.006
  -0.07816371  0.05703970  0.01278787       0.006
  -0.05215214  0.05704408  0.02709803       0.006
  -0.02614056  0.05704847  0.04140818       0.006
  -0.00012772  0.08557121  0.05571049       0.006
   0.02588385  0.08557559  0.07002064       0.006
   0.05189543  0.08557998  0.08433080       0.006
   0.07790700  0.08558437  0.09864096       0.006
  -0.07816244  0.08555805  0.01278001       0.006
  -0.05215087  0.08556244  0.02709017       0.006
  -0.02613930  0.08556682  0.04140033       0.006
  -0.00013533 -0.08553890  0.05575762       0.006
   0.02587624 -0.08553451  0.07006778       0.006
   0.05188781 -0.08553013  0.08437794       0.006
   0.07789939 -0.08552574  0.09868810       0.006
  -0.07817006 -0.08555206  0.01282715       0.006
  -0.05215848 -0.08554767  0.02713731       0.006
  -0.02614691 -0.08554329  0.04144746       0.006
  -0.00013406 -0.05702055  0.05574977       0.006
   0.02587751 -0.05701616  0.07005992       0.006
   0.05188908 -0.05701177  0.08437008       0.006
   0.07790066 -0.05700739  0.09868024       0.006
  -0.07816879 -0.05703371  0.01281929       0.006
  -0.05215721 -0.05702932  0.02712945       0.006
  -0.02614564 -0.05702493  0.04143961       0.006
  -0.00013280 -0.02850220  0.05574191       0.006
   0.02587878 -0.02849781  0.07005207       0.006
   0.05189035 -0.02849342  0.08436223       0.006
   0.07790193 -0.02848904  0.09867238       0.006
  -0.07816752 -0.02851536  0.01281144       0.006
  -0.05215594 -0.02851097  0.02712159       0.006
  -0.02614437 -0.02850658  0.04143175       0.006
  -0.00019729  0.00002423  0.08360108       0.006
   0.02581428  0.00002862  0.09791124       0.006
   0.05182586  0.00003301  0.11222140       0.006
   0.07783743  0.00003739  0.12653155       0.006
  -0.07823201  0.00001107  0.04067061       0.006
  -0.05222044  0.00001546  0.05498077       0.006
  -0.02620887  0.00001985  0.06929092       0.006
  -0.00019602  0.02854258  0.08359323       0.006
   0.02581555  0.02854697  0.09790338       0.006
   0.05182713  0.02855136  0.11221354       0.006
   0.07783870  0.02855574  0.12652370       0.006
  -0.07823075  0.02852942  0.04066275       0.006
  -0.05221917  0.02853381  0.05497291       0.006
  -0.02620760  0.02853820  0.06928307       0.006
  -0.00019475  0.05706093  0.08358537       0.006
   0.02581682  0.05706532  0.09789553       0.006
   0.05182840  0.05706971  0.11220568       0.006
   0.07783997  0.05707409  0.12651584       0.006
  -0.07822948  0.05704778  0.04065490       0.006
  -0.05221790  0.05705216  0.05496505       0.006
  -0.02620633  0.05705655  0.06927521       0.006
  -0.00019348  0.08557929  0.08357751       0.006
   0.02581809  0.08558367  0.09788767       0.006
   0.05182966  0.08558806  0.11219783       0.006
   0.07784124  0.08559245  0.12650799       0.006
  -0.07822821  0.08556613  0.04064704       0.006
  -0.05221663  0.08557051  0.05495720       0.006
  -0.02620506  0.08557490  0.06926735       0.006
  -0.00020110 -0.08553082  0.08362465       0.006
   0.02581048 -0.08552643  0.09793481       0.006
   0.05182205 -0.08552205  0.11224497       0.006
   0.07783363 -0.08551766  0.12655512       0.006
  -0.07823582 -0.08554398  0.04069418       0.006
  -0.05222425 -0.08553959  0.05500433       0.006
  -0.02621267 -0.08553521  0.06931449       0.006
  -0.00019983 -0.05701247  0.08361679       0.006
   0.02581175 -0.05700808  0.09792695       0.006
   0.05182332 -0.05700370  0.11223711       0.006
   0.07783489 -0.05699931  0.12654727       0.006
  -0.07823455 -0.05702563  0.04068632       0.006
  -0.05222298 -0.05702124  0.05499648       0.006
  -0.02621140 -0.05701686  0.06930664       0.006
  -0.00019856 -0.02849412  0.08360894       0.006
   0.02581301 -0.02848973  0.09791910       0.006
   0.05182459 -0.02848535  0.11222925       0.006
   0.07783616 -0.02848096  0.12653941       0.006
  -0.07823328 -0.02850728  0.04067846       0.006
  -0.05222171 -0.02850289  0.05498862       0.006
  -0.02621013 -0.02849851  0.06929878       0.006
 
 k-points in reciprocal lattice and weights: KPOINTS created by Atomic Simulation Env
   0.00000000  0.00000000  0.00000000       0.003
   0.14285714 -0.00000000  0.00000000       0.006
   0.28571429 -0.00000000  0.00000000       0.006
   0.42857143 -0.00000000  0.00000000       0.006
   0.00000000  0.14285714 -0.00000000       0.006
   0.14285714  0.14285714  0.00000000       0.006
   0.28571429  0.14285714  0.00000000       0.006
   0.42857143  0.14285714 -0.00000000       0.006
  -0.42857143  0.14285714 -0.00000000       0.006
  -0.28571429  0.14285714 -0.00000000       0.006
  -0.14285714  0.14285714 -0.00000000       0.006
  -0.00000000  0.28571429  0.00000000       0.006
   0.14285714  0.28571429  0.00000000       0.006
   0.28571429  0.28571429  0.00000000       0.006
   0.42857143  0.28571429  0.00000000       0.006
  -0.42857143  0.28571429 -0.00000000       0.006
  -0.28571429  0.28571429  0.00000000       0.006
  -0.14285714  0.28571429 -0.00000000       0.006
   0.00000000  0.42857143 -0.00000000       0.006
   0.14285714  0.42857143  0.00000000       0.006
   0.28571429  0.42857143  0.00000000       0.006
   0.42857143  0.42857143 -0.00000000       0.006
  -0.42857143  0.42857143 -0.00000000       0.006
  -0.28571429  0.42857143 -0.00000000       0.006
  -0.14285714  0.42857143 -0.00000000       0.006
  -0.00000000 -0.00000000  0.14285714       0.006
   0.14285714  0.00000000  0.14285714       0.006
   0.28571429 -0.00000000  0.14285714       0.006
   0.42857143 -0.00000000  0.14285714       0.006
  -0.42857143  0.00000000  0.14285714       0.006
  -0.28571429  0.00000000  0.14285714       0.006
  -0.14285714  0.00000000  0.14285714       0.006
   0.00000000  0.14285714  0.14285714       0.006
   0.14285714  0.14285714  0.14285714       0.006
   0.28571429  0.14285714  0.14285714       0.006
   0.42857143  0.14285714  0.14285714       0.006
  -0.42857143  0.14285714  0.14285714       0.006
  -0.28571429  0.14285714  0.14285714       0.006
  -0.14285714  0.14285714  0.14285714       0.006
   0.00000000  0.28571429  0.14285714       0.006
   0.14285714  0.28571429  0.14285714       0.006
   0.28571429  0.28571429  0.14285714       0.006
   0.42857143  0.28571429  0.14285714       0.006
  -0.42857143  0.28571429  0.14285714       0.006
  -0.28571429  0.28571429  0.14285714       0.006
  -0.14285714  0.28571429  0.14285714       0.006
  -0.00000000  0.42857143  0.14285714       0.006
   0.14285714  0.42857143  0.14285714       0.006
   0.28571429  0.42857143  0.14285714       0.006
   0.42857143  0.42857143  0.14285714       0.006
  -0.42857143  0.42857143  0.14285714       0.006
  -0.28571429  0.42857143  0.14285714       0.006
  -0.14285714  0.42857143  0.14285714       0.006
   0.00000000 -0.42857143  0.14285714       0.006
   0.14285714 -0.42857143  0.14285714       0.006
   0.28571429 -0.42857143  0.14285714       0.006
   0.42857143 -0.42857143  0.14285714       0.006
  -0.42857143 -0.42857143  0.14285714       0.006
  -0.28571429 -0.42857143  0.14285714       0.006
  -0.14285714 -0.42857143  0.14285714       0.006
   0.00000000 -0.28571429  0.14285714       0.006
   0.14285714 -0.28571429  0.14285714       0.006
   0.28571429 -0.28571429  0.14285714       0.006
   0.42857143 -0.28571429  0.14285714       0.006
  -0.42857143 -0.28571429  0.14285714       0.006
  -0.28571429 -0.28571429  0.14285714       0.006
  -0.14285714 -0.28571429  0.14285714       0.006
  -0.00000000 -0.14285714  0.14285714       0.006
   0.14285714 -0.14285714  0.14285714       0.006
   0.28571429 -0.14285714  0.14285714       0.006
   0.42857143 -0.14285714  0.14285714       0.006
  -0.42857143 -0.14285714  0.14285714       0.006
  -0.28571429 -0.14285714  0.14285714       0.006
  -0.14285714 -0.14285714  0.14285714       0.006
  -0.00000000  0.00000000  0.28571429       0.006
   0.14285714  0.00000000  0.28571429       0.006
   0.28571429  0.00000000  0.28571429       0.006
   0.42857143 -0.00000000  0.28571429       0.006
  -0.42857143  0.00000000  0.28571429       0.006
  -0.28571429  0.00000000  0.28571429       0.006
  -0.14285714  0.00000000  0.28571429       0.006
  -0.00000000  0.14285714  0.28571429       0.006
   0.14285714  0.14285714  0.28571429       0.006
   0.28571429  0.14285714  0.28571429       0.006
   0.42857143  0.14285714  0.28571429       0.006
  -0.42857143  0.14285714  0.28571429       0.006
  -0.28571429  0.14285714  0.28571429       0.006
  -0.14285714  0.14285714  0.28571429       0.006
  -0.00000000  0.28571429  0.28571429       0.006
   0.14285714  0.28571429  0.28571429       0.006
   0.28571429  0.28571429  0.28571429       0.006
   0.42857143  0.28571429  0.28571429       0.006
  -0.42857143  0.28571429  0.28571429       0.006
  -0.28571429  0.28571429  0.28571429       0.006
  -0.14285714  0.28571429  0.28571429       0.006
  -0.00000000  0.42857143  0.28571429       0.006
   0.14285714  0.42857143  0.28571429       0.006
   0.28571429  0.42857143  0.28571429       0.006
   0.42857143  0.42857143  0.28571429       0.006
  -0.42857143  0.42857143  0.28571429       0.006
  -0.28571429  0.42857143  0.28571429       0.006
  -0.14285714  0.42857143  0.28571429       0.006
   0.00000000 -0.42857143  0.28571429       0.006
   0.14285714 -0.42857143  0.28571429       0.006
   0.28571429 -0.42857143  0.28571429       0.006
   0.42857143 -0.42857143  0.28571429       0.006
  -0.42857143 -0.42857143  0.28571429       0.006
  -0.28571429 -0.42857143  0.28571429       0.006
  -0.14285714 -0.42857143  0.28571429       0.006
   0.00000000 -0.28571429  0.28571429       0.006
   0.14285714 -0.28571429  0.28571429       0.006
   0.28571429 -0.28571429  0.28571429       0.006
   0.42857143 -0.28571429  0.28571429       0.006
  -0.42857143 -0.28571429  0.28571429       0.006
  -0.28571429 -0.28571429  0.28571429       0.006
  -0.14285714 -0.28571429  0.28571429       0.006
   0.00000000 -0.14285714  0.28571429       0.006
   0.14285714 -0.14285714  0.28571429       0.006
   0.28571429 -0.14285714  0.28571429       0.006
   0.42857143 -0.14285714  0.28571429       0.006
  -0.42857143 -0.14285714  0.28571429       0.006
  -0.28571429 -0.14285714  0.28571429       0.006
  -0.14285714 -0.14285714  0.28571429       0.006
   0.00000000 -0.00000000  0.42857143       0.006
   0.14285714  0.00000000  0.42857143       0.006
   0.28571429  0.00000000  0.42857143       0.006
   0.42857143 -0.00000000  0.42857143       0.006
  -0.42857143 -0.00000000  0.42857143       0.006
  -0.28571429 -0.00000000  0.42857143       0.006
  -0.14285714 -0.00000000  0.42857143       0.006
   0.00000000  0.14285714  0.42857143       0.006
   0.14285714  0.14285714  0.42857143       0.006
   0.28571429  0.14285714  0.42857143       0.006
   0.42857143  0.14285714  0.42857143       0.006
  -0.42857143  0.14285714  0.42857143       0.006
  -0.28571429  0.14285714  0.42857143       0.006
  -0.14285714  0.14285714  0.42857143       0.006
   0.00000000  0.28571429  0.42857143       0.006
   0.14285714  0.28571429  0.42857143       0.006
   0.28571429  0.28571429  0.42857143       0.006
   0.42857143  0.28571429  0.42857143       0.006
  -0.42857143  0.28571429  0.42857143       0.006
  -0.28571429  0.28571429  0.42857143       0.006
  -0.14285714  0.28571429  0.42857143       0.006
   0.00000000  0.42857143  0.42857143       0.006
   0.14285714  0.42857143  0.42857143       0.006
   0.28571429  0.42857143  0.42857143       0.006
   0.42857143  0.42857143  0.42857143       0.006
  -0.42857143  0.42857143  0.42857143       0.006
  -0.28571429  0.42857143  0.42857143       0.006
  -0.14285714  0.42857143  0.42857143       0.006
   0.00000000 -0.42857143  0.42857143       0.006
   0.14285714 -0.42857143  0.42857143       0.006
   0.28571429 -0.42857143  0.42857143       0.006
   0.42857143 -0.42857143  0.42857143       0.006
  -0.42857143 -0.42857143  0.42857143       0.006
  -0.28571429 -0.42857143  0.42857143       0.006
  -0.14285714 -0.42857143  0.42857143       0.006
   0.00000000 -0.28571429  0.42857143       0.006
   0.14285714 -0.28571429  0.42857143       0.006
   0.28571429 -0.28571429  0.42857143       0.006
   0.42857143 -0.28571429  0.42857143       0.006
  -0.42857143 -0.28571429  0.42857143       0.006
  -0.28571429 -0.28571429  0.42857143       0.006
  -0.14285714 -0.28571429  0.42857143       0.006
   0.00000000 -0.14285714  0.42857143       0.006
   0.14285714 -0.14285714  0.42857143       0.006
   0.28571429 -0.14285714  0.42857143       0.006
   0.42857143 -0.14285714  0.42857143       0.006
  -0.42857143 -0.14285714  0.42857143       0.006
  -0.28571429 -0.14285714  0.42857143       0.006
  -0.14285714 -0.14285714  0.42857143       0.006
 
 position of ions in fractional coordinates (direct lattice) 
   0.22549165  0.50257710  0.50348709
   0.72555338  0.00137598  0.00351755
   0.77872631  0.50137339  0.49567434
   0.27873466  0.00260874  0.99564943
   0.12810328  0.30372776  0.74810822
   0.89137629  0.81390297  0.77696014
   0.87608088  0.70023753  0.25105462
   0.11301713  0.18998931  0.22230673
   0.37611707  0.80370676  0.75104637
   0.61296505  0.31390190  0.72221422
   0.62817943  0.20023169  0.24810224
   0.39126362  0.68997314  0.27686446
   0.00257880  0.50192421  0.99968168
   0.50194019  0.00185610  0.49958357
 
 position of ions in cartesian coordinates  (Angst):
  -0.18133820  2.51828118  2.57991139
   3.96970885  0.00672362  0.02739851
   2.87512593  2.51210640  2.54707499
  -1.27550649  0.01452998  5.10106920
  -1.40449899  1.52258317  3.83133584
   2.70071952  4.07806739  3.98818912
   4.09809739  3.50787853  1.29565728
  -0.00626638  0.95202872  1.13933940
  -0.05245689  4.02707558  3.84886269
   1.32787112  1.57339219  3.70502662
   2.74671154  1.00325167  1.27805908
   1.36620843  3.45661728  1.42153633
  -2.80158481  2.51582623  5.11741363
   1.34598293  0.00994427  2.56423183
 


--------------------------------------------------------------------------------------------------------


 k-point  1 :   0.0000 0.0000 0.0000  plane waves:    4685
 k-point  2 :   0.1429-0.0000 0.0000  plane waves:    4691
 k-point  3 :   0.2857-0.0000 0.0000  plane waves:    4709
 k-point  4 :   0.4286-0.0000 0.0000  plane waves:    4702
 k-point  5 :   0.0000 0.1429-0.0000  plane waves:    4698
 k-point  6 :   0.1429 0.1429 0.0000  plane waves:    4709
 k-point  7 :   0.2857 0.1429 0.0000  plane waves:    4709
 k-point  8 :   0.4286 0.1429-0.0000  plane waves:    4703
 k-point  9 :  -0.4286 0.1429-0.0000  plane waves:    4703
 k-point 10 :  -0.2857 0.1429-0.0000  plane waves:    4710
 k-point 11 :  -0.1429 0.1429-0.0000  plane waves:    4709
 k-point 12 :  -0.0000 0.2857 0.0000  plane waves:    4706
 k-point 13 :   0.1429 0.2857 0.0000  plane waves:    4709
 k-point 14 :   0.2857 0.2857 0.0000  plane waves:    4703
 k-point 15 :   0.4286 0.2857 0.0000  plane waves:    4696
 k-point 16 :  -0.4286 0.2857-0.0000  plane waves:    4696
 k-point 17 :  -0.2857 0.2857 0.0000  plane waves:    4703
 k-point 18 :  -0.1429 0.2857-0.0000  plane waves:    4709
 k-point 19 :   0.0000 0.4286-0.0000  plane waves:    4714
 k-point 20 :   0.1429 0.4286 0.0000  plane waves:    4706
 k-point 21 :   0.2857 0.4286 0.0000  plane waves:    4693
 k-point 22 :   0.4286 0.4286-0.0000  plane waves:    4699
 k-point 23 :  -0.4286 0.4286-0.0000  plane waves:    4699
 k-point 24 :  -0.2857 0.4286-0.0000  plane waves:    4693
 k-point 25 :  -0.1429 0.4286-0.0000  plane waves:    4706
 k-point 26 :  -0.0000-0.0000 0.1429  plane waves:    4692
 k-point 27 :   0.1429 0.0000 0.1429  plane waves:    4678
 k-point 28 :   0.2857-0.0000 0.1429  plane waves:    4684
 k-point 29 :   0.4286-0.0000 0.1429  plane waves:    4702
 k-point 30 :  -0.4286 0.0000 0.1429  plane waves:    4697
 k-point 31 :  -0.2857 0.0000 0.1429  plane waves:    4703
 k-point 32 :  -0.1429 0.0000 0.1429  plane waves:    4681
 k-point 33 :   0.0000 0.1429 0.1429  plane waves:    4694
 k-point 34 :   0.1429 0.1429 0.1429  plane waves:    4691
 k-point 35 :   0.2857 0.1429 0.1429  plane waves:    4703
 k-point 36 :   0.4286 0.1429 0.1429  plane waves:    4697
 k-point 37 :  -0.4286 0.1429 0.1429  plane waves:    4713
 k-point 38 :  -0.2857 0.1429 0.1429  plane waves:    4709
 k-point 39 :  -0.1429 0.1429 0.1429  plane waves:    4708
 k-point 40 :   0.0000 0.2857 0.1429  plane waves:    4706
 k-point 41 :   0.1429 0.2857 0.1429  plane waves:    4702
 k-point 42 :   0.2857 0.2857 0.1429  plane waves:    4700
 k-point 43 :   0.4286 0.2857 0.1429  plane waves:    4703
 k-point 44 :  -0.4286 0.2857 0.1429  plane waves:    4708
 k-point 45 :  -0.2857 0.2857 0.1429  plane waves:    4707
 k-point 46 :  -0.1429 0.2857 0.1429  plane waves:    4705
 k-point 47 :  -0.0000 0.4286 0.1429  plane waves:    4710
 k-point 48 :   0.1429 0.4286 0.1429  plane waves:    4704
 k-point 49 :   0.2857 0.4286 0.1429  plane waves:    4696
 k-point 50 :   0.4286 0.4286 0.1429  plane waves:    4702
 k-point 51 :  -0.4286 0.4286 0.1429  plane waves:    4704
 k-point 52 :  -0.2857 0.4286 0.1429  plane waves:    4717
 k-point 53 :  -0.1429 0.4286 0.1429  plane waves:    4697
 k-point 54 :   0.0000-0.4286 0.1429  plane waves:    4711
 k-point 55 :   0.1429-0.4286 0.1429  plane waves:    4704
 k-point 56 :   0.2857-0.4286 0.1429  plane waves:    4695
 k-point 57 :   0.4286-0.4286 0.1429  plane waves:    4702
 k-point 58 :  -0.4286-0.4286 0.1429  plane waves:    4704
 k-point 59 :  -0.2857-0.4286 0.1429  plane waves:    4717
 k-point 60 :  -0.1429-0.4286 0.1429  plane waves:    4697
 k-point 61 :   0.0000-0.2857 0.1429  plane waves:    4706
 k-point 62 :   0.1429-0.2857 0.1429  plane waves:    4702
 k-point 63 :   0.2857-0.2857 0.1429  plane waves:    4700
 k-point 64 :   0.4286-0.2857 0.1429  plane waves:    4703
 k-point 65 :  -0.4286-0.2857 0.1429  plane waves:    4708
 k-point 66 :  -0.2857-0.2857 0.1429  plane waves:    4708
 k-point 67 :  -0.1429-0.2857 0.1429  plane waves:    4705
 k-point 68 :  -0.0000-0.1429 0.1429  plane waves:    4694
 k-point 69 :   0.1429-0.1429 0.1429  plane waves:    4692
 k-point 70 :   0.2857-0.1429 0.1429  plane waves:    4703
 k-point 71 :   0.4286-0.1429 0.1429  plane waves:    4696
 k-point 72 :  -0.4286-0.1429 0.1429  plane waves:    4712
 k-point 73 :  -0.2857-0.1429 0.1429  plane waves:    4709
 k-point 74 :  -0.1429-0.1429 0.1429  plane waves:    4708
 k-point 75 :  -0.0000 0.0000 0.2857  plane waves:    4678
 k-point 76 :   0.1429 0.0000 0.2857  plane waves:    4669
 k-point 77 :   0.2857 0.0000 0.2857  plane waves:    4685
 k-point 78 :   0.4286-0.0000 0.2857  plane waves:    4696
 k-point 79 :  -0.4286 0.0000 0.2857  plane waves:    4707
 k-point 80 :  -0.2857 0.0000 0.2857  plane waves:    4704
 k-point 81 :  -0.1429 0.0000 0.2857  plane waves:    4685
 k-point 82 :  -0.0000 0.1429 0.2857  plane waves:    4680
 k-point 83 :   0.1429 0.1429 0.2857  plane waves:    4690
 k-point 84 :   0.2857 0.1429 0.2857  plane waves:    4691
 k-point 85 :   0.4286 0.1429 0.2857  plane waves:    4697
 k-point 86 :  -0.4286 0.1429 0.2857  plane waves:    4707
 k-point 87 :  -0.2857 0.1429 0.2857  plane waves:    4698
 k-point 88 :  -0.1429 0.1429 0.2857  plane waves:    4695
 k-point 89 :  -0.0000 0.2857 0.2857  plane waves:    4697
 k-point 90 :   0.1429 0.2857 0.2857  plane waves:    4702
 k-point 91 :   0.2857 0.2857 0.2857  plane waves:    4695
 k-point 92 :   0.4286 0.2857 0.2857  plane waves:    4713
 k-point 93 :  -0.4286 0.2857 0.2857  plane waves:    4712
 k-point 94 :  -0.2857 0.2857 0.2857  plane waves:    4706
 k-point 95 :  -0.1429 0.2857 0.2857  plane waves:    4699
 k-point 96 :  -0.0000 0.4286 0.2857  plane waves:    4697
 k-point 97 :   0.1429 0.4286 0.2857  plane waves:    4703
 k-point 98 :   0.2857 0.4286 0.2857  plane waves:    4712
 k-point 99 :   0.4286 0.4286 0.2857  plane waves:    4713
 k-point ** :  -0.4286 0.4286 0.2857  plane waves:    4715
 k-point ** :  -0.2857 0.4286 0.2857  plane waves:    4706
 k-point ** :  -0.1429 0.4286 0.2857  plane waves:    4698
 k-point ** :   0.0000-0.4286 0.2857  plane waves:    4698
 k-point ** :   0.1429-0.4286 0.2857  plane waves:    4702
 k-point ** :   0.2857-0.4286 0.2857  plane waves:    4712
 k-point ** :   0.4286-0.4286 0.2857  plane waves:    4713
 k-point ** :  -0.4286-0.4286 0.2857  plane waves:    4714
 k-point ** :  -0.2857-0.4286 0.2857  plane waves:    4706
 k-point ** :  -0.1429-0.4286 0.2857  plane waves:    4698
 k-point ** :   0.0000-0.2857 0.2857  plane waves:    4695
 k-point ** :   0.1429-0.2857 0.2857  plane waves:    4702
 k-point ** :   0.2857-0.2857 0.2857  plane waves:    4695
 k-point ** :   0.4286-0.2857 0.2857  plane waves:    4713
 k-point ** :  -0.4286-0.2857 0.2857  plane waves:    4712
 k-point ** :  -0.2857-0.2857 0.2857  plane waves:    4706
 k-point ** :  -0.1429-0.2857 0.2857  plane waves:    4699
 k-point ** :   0.0000-0.1429 0.2857  plane waves:    4680
 k-point ** :   0.1429-0.1429 0.2857  plane waves:    4690
 k-point ** :   0.2857-0.1429 0.2857  plane waves:    4691
 k-point ** :   0.4286-0.1429 0.2857  plane waves:    4697
 k-point ** :  -0.4286-0.1429 0.2857  plane waves:    4707
 k-point ** :  -0.2857-0.1429 0.2857  plane waves:    4698
 k-point ** :  -0.1429-0.1429 0.2857  plane waves:    4695
 k-point ** :   0.0000-0.0000 0.4286  plane waves:    4675
 k-point ** :   0.1429 0.0000 0.4286  plane waves:    4677
 k-point ** :   0.2857 0.0000 0.4286  plane waves:    4690
 k-point ** :   0.4286-0.0000 0.4286  plane waves:    4701
 k-point ** :  -0.4286-0.0000 0.4286  plane waves:    4689
 k-point ** :  -0.2857-0.0000 0.4286  plane waves:    4696
 k-point ** :  -0.1429-0.0000 0.4286  plane waves:    4673
 k-point ** :   0.0000 0.1429 0.4286  plane waves:    4677
 k-point ** :   0.1429 0.1429 0.4286  plane waves:    4683
 k-point ** :   0.2857 0.1429 0.4286  plane waves:    4708
 k-point ** :   0.4286 0.1429 0.4286  plane waves:    4705
 k-point ** :  -0.4286 0.1429 0.4286  plane waves:    4705
 k-point ** :  -0.2857 0.1429 0.4286  plane waves:    4701
 k-point ** :  -0.1429 0.1429 0.4286  plane waves:    4678
 k-point ** :   0.0000 0.2857 0.4286  plane waves:    4681
 k-point ** :   0.1429 0.2857 0.4286  plane waves:    4696
 k-point ** :   0.2857 0.2857 0.4286  plane waves:    4713
 k-point ** :   0.4286 0.2857 0.4286  plane waves:    4712
 k-point ** :  -0.4286 0.2857 0.4286  plane waves:    4709
 k-point ** :  -0.2857 0.2857 0.4286  plane waves:    4709
 k-point ** :  -0.1429 0.2857 0.4286  plane waves:    4695
 k-point ** :   0.0000 0.4286 0.4286  plane waves:    4699
 k-point ** :   0.1429 0.4286 0.4286  plane waves:    4713
 k-point ** :   0.2857 0.4286 0.4286  plane waves:    4709
 k-point ** :   0.4286 0.4286 0.4286  plane waves:    4706
 k-point ** :  -0.4286 0.4286 0.4286  plane waves:    4723
 k-point ** :  -0.2857 0.4286 0.4286  plane waves:    4705
 k-point ** :  -0.1429 0.4286 0.4286  plane waves:    4707
 k-point ** :   0.0000-0.4286 0.4286  plane waves:    4699
 k-point ** :   0.1429-0.4286 0.4286  plane waves:    4713
 k-point ** :   0.2857-0.4286 0.4286  plane waves:    4709
 k-point ** :   0.4286-0.4286 0.4286  plane waves:    4705
 k-point ** :  -0.4286-0.4286 0.4286  plane waves:    4723
 k-point ** :  -0.2857-0.4286 0.4286  plane waves:    4705
 k-point ** :  -0.1429-0.4286 0.4286  plane waves:    4707
 k-point ** :   0.0000-0.2857 0.4286  plane waves:    4680
 k-point ** :   0.1429-0.2857 0.4286  plane waves:    4696
 k-point ** :   0.2857-0.2857 0.4286  plane waves:    4713
 k-point ** :   0.4286-0.2857 0.4286  plane waves:    4712
 k-point ** :  -0.4286-0.2857 0.4286  plane waves:    4708
 k-point ** :  -0.2857-0.2857 0.4286  plane waves:    4707
 k-point ** :  -0.1429-0.2857 0.4286  plane waves:    4695
 k-point ** :   0.0000-0.1429 0.4286  plane waves:    4677
 k-point ** :   0.1429-0.1429 0.4286  plane waves:    4683
 k-point ** :   0.2857-0.1429 0.4286  plane waves:    4708
 k-point ** :   0.4286-0.1429 0.4286  plane waves:    4705
 k-point ** :  -0.4286-0.1429 0.4286  plane waves:    4705
 k-point ** :  -0.2857-0.1429 0.4286  plane waves:    4701
 k-point ** :  -0.1429-0.1429 0.4286  plane waves:    4678

 maximum and minimum number of plane-waves per node :       611      552

 maximum number of plane-waves:      4723
 maximum index in each direction: 
   IXMAX=   11   IYMAX=   10   IZMAX=   11
   IXMIN=  -11   IYMIN=  -10   IZMIN=  -12

 WARNING: aliasing errors must be expected set NGX to  46 to avoid them
 WARNING: aliasing errors must be expected set NGY to  42 to avoid them
 WARNING: aliasing errors must be expected set NGZ to  48 to avoid them
 aliasing errors are usually negligible using standard VASP settings
 and one can safely disregard these warnings

 real space projection operators:
  total allocation   :       3327.03 KBytes
  max/ min on nodes  :        470.74        360.09


 parallel 3D FFT for wavefunctions:
    minimum data exchange during FFTs selected (reduces bandwidth)
 parallel 3D FFT for charge:
    minimum data exchange during FFTs selected (reduces bandwidth)


 total amount of memory used by VASP on root node    57998. kBytes
========================================================================

   base      :      30000. kBytes
   nonlr-proj:       1618. kBytes
   fftplans  :        447. kBytes
   grid      :       1214. kBytes
   one-center:         62. kBytes
   wavefun   :      24657. kBytes
 
     INWAV:  cpu time    0.0001: real time    0.0001
 Broyden mixing: mesh for mixing (old mesh)
   NGX = 21   NGY = 21   NGZ = 23
  (NGX  = 72   NGY  = 60   NGZ  = 72)
  gives a total of  10143 points

 initial charge density was supplied:
 charge density of overlapping atoms calculated
 number of electron      74.0000000 magnetization      14.0000000
 keeping initial charge density in first step


--------------------------------------------------------------------------------------------------------


 Maximum index for non-local projection operator          632
 Maximum index for augmentation-charges          748 (set IRDMAX)


--------------------------------------------------------------------------------------------------------


 First call to EWALD:  gamma=   0.341
 Maximum number of real-space cells 3x 3x 3
 Maximum number of reciprocal cells 3x 3x 3

 FEWALD executed in parallel
    FEWALD:  cpu time    0.0016: real time    0.0016


----------------------------------------- Iteration    1(   1)  ---------------------------------------


    POTLOK:  cpu time    0.0117: real time    0.0126
    SETDIJ:  cpu time    0.0058: real time    0.0059
    EDDIAG:  cpu time    2.0859: real time    2.1059
  RMM-DIIS:  cpu time    0.9620: real time    0.9672
    ORTHCH:  cpu time    0.3358: real time    0.3378
       DOS:  cpu time    0.0070: real time    0.0072
    --------------------------------------------
      LOOP:  cpu time    3.4122: real time    3.4414

 eigenvalue-minimisations  : 19264
 total energy-change (2. order) : 0.8969964E+03  (-0.2993479E+04)
 number of electron      74.0000000 magnetization      14.0000000
 augmentation part       74.0000000 magnetization      14.0000000

 Free energy of the ion-electron system (eV)
  ---------------------------------------------------
  alpha Z        PSCENC =       340.50953751
  Ewald energy   TEWEN  =     -3807.41884355
  -Hartree energ DENC   =      -963.90146206
  -exchange      EXHF   =         0.00000000
  -V(xc)+E(xc)   XCENC  =       -27.52069429
  PAW double counting   =      3848.31038071    -3566.89122767
  entropy T*S    EENTRO =        -0.00110856
  eigenvalues    EBANDS =       734.34546251
  atomic energy  EATOM  =      4339.56435851
  Solvation  Ediel_sol  =         0.00000000
  ---------------------------------------------------
  free energy    TOTEN  =       896.99640311 eV

  energy without entropy =      896.99751167  energy(sigma->0) =      896.99695739


--------------------------------------------------------------------------------------------------------




----------------------------------------- Iteration    1(   2)  ---------------------------------------


    EDDIAG:  cpu time    2.0348: real time    2.0477
  RMM-DIIS:  cpu time    0.9648: real time    0.9698
    ORTHCH:  cpu time    0.3386: real time    0.3405
       DOS:  cpu time    0.0069: real time    0.0069
    --------------------------------------------
      LOOP:  cpu time    3.3464: real time    3.3802

 eigenvalue-minimisations  : 19264
 total energy-change (2. order) :-0.7219450E+03  (-0.7225133E+03)
 number of electron      74.0000000 magnetization      14.0000000
 augmentation part       74.0000000 magnetization      14.0000000

 Free energy of the ion-electron system (eV)
  ---------------------------------------------------
  alpha Z        PSCENC =       340.50953751
  Ewald energy   TEWEN  =     -3807.41884355
  -Hartree energ DENC   =      -963.90146206
  -exchange      EXHF   =         0.00000000
  -V(xc)+E(xc)   XCENC  =       -27.52069429
  PAW double counting   =      3848.31038071    -3566.89122767
  entropy T*S    EENTRO =        -0.00130714
  eigenvalues    EBANDS =        12.40070496
  atomic energy  EATOM  =      4339.56435851
  Solvation  Ediel_sol  =         0.00000000
  ---------------------------------------------------
  free energy    TOTEN  =       175.05144698 eV

  energy without entropy =      175.05275412  energy(sigma->0) =      175.05210055


--------------------------------------------------------------------------------------------------------




----------------------------------------- Iteration    1(   3)  ---------------------------------------


    EDDIAG:  cpu time    2.0257: real time    2.0387
  RMM-DIIS:  cpu time    0.9604: real time    0.9652
    ORTHCH:  cpu time    0.3365: real time    0.3384
       DOS:  cpu time    0.0068: real time    0.0068
    --------------------------------------------
      LOOP:  cpu time    3.3307: real time    3.3634

 eigenvalue-minimisations  : 19264
 total energy-change (2. order) :-0.2163341E+03  (-0.1986949E+03)
 number of electron      74.0000000 magnetization      14.0000000
 augmentation part       74.0000000 magnetization      14.0000000

 Free energy of the ion-electron system (eV)
  ---------------------------------------------------
  alpha Z        PSCENC =       340.50953751
  Ewald energy   TEWEN  =     -3807.41884355
  -Hartree energ DENC   =      -963.90146206
  -exchange      EXHF   =         0.00000000
  -V(xc)+E(xc)   XCENC  =       -27.52069429
  PAW double counting   =      3848.31038071    -3566.89122767
  entropy T*S    EENTRO =        -0.00133441
  eigenvalues    EBANDS =      -203.93340336
  atomic energy  EATOM  =      4339.56435851
  Solvation  Ediel_sol  =         0.00000000
  ---------------------------------------------------
  free energy    TOTEN  =       -41.28268861 eV

  energy without entropy =      -41.28135420  energy(sigma->0) =      -41.28202141


--------------------------------------------------------------------------------------------------------




----------------------------------------- Iteration    1(   4)  ---------------------------------------


    EDDIAG:  cpu time    2.0271: real time    2.0398
  RMM-DIIS:  cpu time    0.9650: real time    0.9701
    ORTHCH:  cpu time    0.3370: real time    0.3390
       DOS:  cpu time    0.0070: real time    0.0071
    --------------------------------------------
      LOOP:  cpu time    3.3374: real time    3.3703

 eigenvalue-minimisations  : 19264
 total energy-change (2. order) :-0.6447824E+02  (-0.4944129E+02)
 number of electron      74.0000000 magnetization      14.0000000
 augmentation part       74.0000000 magnetization      14.0000000

 Free energy of the ion-electron system (eV)
  ---------------------------------------------------
  alpha Z        PSCENC =       340.50953751
  Ewald energy   TEWEN  =     -3807.41884355
  -Hartree energ DENC   =      -963.90146206
  -exchange      EXHF   =         0.00000000
  -V(xc)+E(xc)   XCENC  =       -27.52069429
  PAW double counting   =      3848.31038071    -3566.89122767
  entropy T*S    EENTRO =        -0.00152092
  eigenvalues    EBANDS =      -268.41145888
  atomic energy  EATOM  =      4339.56435851
  Solvation  Ediel_sol  =         0.00000000
  ---------------------------------------------------
  free energy    TOTEN  =      -105.76093064 eV

  energy without entropy =     -105.75940972  energy(sigma->0) =     -105.76017018

[...]
     47       9.0403      0.00000
     48       9.4590      0.00000
     49       9.6490      0.00000
     50       9.7025      0.00000
     51      10.2403      0.00000
     52      10.9674      0.00000
     53      11.4951      0.00000
     54      13.0231      0.00000
     55      13.7024      0.00000
     56      17.3458      0.00000


--------------------------------------------------------------------------------------------------------


 soft charge-density along one line, spin component           1
         0         1         2         3         4         5         6         7         8         9
 total charge-density along one line
 
 soft charge-density along one line, spin component           2
         0         1         2         3         4         5         6         7         8         9
 total charge-density along one line
 
 pseudopotential strength for first ion, spin component:           1
 -7.904  -0.000  -0.000   0.014  -0.000  -8.118  -0.000  -0.000
 -0.000  -7.923  -0.006   0.000   0.022  -0.000  -8.137  -0.006
 -0.000  -0.006  -7.899  -0.001  -0.011  -0.000  -0.006  -8.113
  0.014   0.000  -0.001  -7.909   0.000   0.014   0.000  -0.001
 -0.000   0.022  -0.011   0.000  -7.899  -0.000   0.022  -0.011
 -8.118  -0.000  -0.000   0.014  -0.000  -8.321  -0.000  -0.000
 -0.000  -8.137  -0.006   0.000   0.022  -0.000  -8.341  -0.006
 -0.000  -0.006  -8.113  -0.001  -0.011  -0.000  -0.006  -8.316
  0.014   0.000  -0.001  -8.123   0.000   0.014   0.000  -0.001
 -0.000   0.022  -0.011   0.000  -8.113  -0.000   0.022  -0.011
 -0.000   0.003   0.003   0.000  -0.006  -0.000   0.003   0.003
 -0.000   0.007   0.007   0.000  -0.014  -0.000   0.007   0.007
 -0.033  -0.005   0.003   0.004   0.000  -0.033  -0.005   0.003
  0.004   0.002  -0.020  -0.039  -0.003   0.005   0.002  -0.020
 -0.002   0.004   0.025  -0.012  -0.049  -0.002   0.005   0.025
 -0.048  -0.006   0.002   0.006  -0.001  -0.048  -0.006   0.002
  0.006   0.004  -0.023  -0.055  -0.004   0.006   0.004  -0.023
 -0.001   0.006   0.034  -0.013  -0.066  -0.001   0.006   0.034
 pseudopotential strength for first ion, spin component:           2
 -7.904  -0.000  -0.000   0.014  -0.000  -8.118  -0.000   0.000
 -0.000  -7.923  -0.006   0.000   0.022  -0.000  -8.137  -0.006
 -0.000  -0.006  -7.899  -0.001  -0.011   0.000  -0.006  -8.113
  0.014   0.000  -0.001  -7.909   0.000   0.014   0.000  -0.001
 -0.000   0.022  -0.011   0.000  -7.899  -0.000   0.022  -0.011
 -8.118  -0.000   0.000   0.014  -0.000  -8.322  -0.000   0.000
 -0.000  -8.137  -0.006   0.000   0.022  -0.000  -8.341  -0.006
  0.000  -0.006  -8.113  -0.001  -0.011   0.000  -0.006  -8.317
  0.014   0.000  -0.001  -8.123   0.000   0.014   0.000  -0.001
 -0.000   0.022  -0.011   0.000  -8.113  -0.000   0.022  -0.011
 -0.000   0.003   0.003   0.000  -0.006  -0.000   0.003   0.003
 -0.000   0.007   0.007   0.000  -0.014  -0.000   0.007   0.007
 -0.033  -0.005   0.003   0.004   0.000  -0.033  -0.005   0.003
  0.004   0.002  -0.020  -0.039  -0.003   0.005   0.002  -0.020
 -0.002   0.004   0.025  -0.012  -0.049  -0.002   0.005   0.025
 -0.048  -0.006   0.002   0.006  -0.001  -0.048  -0.006   0.002
  0.006   0.004  -0.023  -0.055  -0.004   0.006   0.004  -0.023
 -0.001   0.006   0.034  -0.013  -0.066  -0.001   0.006   0.034
 total augmentation occupancy for first ion, spin component:           1
  6.573   0.157  -0.056  -3.662  -0.164  -7.168  -0.184   0.056   4.679   0.151  -0.013   0.002   0.000  -0.285   0.034   0.000
  0.157   9.931   0.870   0.020  -3.719  -0.183 -11.433  -0.908  -0.024   4.521   0.084  -0.013  -0.280  -0.207  -0.323   0.045
 -0.056   0.870   3.531   0.023  -0.118   0.055  -0.924  -3.461  -0.052   0.377  -0.289   0.026  -0.013   0.063   0.175   0.002
 -3.662   0.020   0.023   8.366  -0.100   4.679  -0.023  -0.051  -9.407   0.086  -0.043   0.007  -0.296   0.188  -0.065   0.037
 -0.164  -3.719  -0.118  -0.100   4.942   0.152   4.544   0.371   0.087  -5.346   0.134  -0.008   0.217   0.123  -0.079  -0.032
 -7.168  -0.183   0.055   4.679   0.152   8.619   0.212  -0.055  -5.457  -0.149   0.018  -0.002  -0.043   0.285  -0.039   0.000
 -0.184 -11.433  -0.924  -0.023   4.544   0.212  13.628   0.917   0.034  -5.120  -0.060   0.018   0.324   0.225   0.304  -0.051
  0.056  -0.908  -3.461  -0.051   0.371  -0.055   0.917   4.399   0.063  -0.739   0.235  -0.032   0.011  -0.046  -0.102  -0.001
  4.679  -0.024  -0.052  -9.407   0.087  -5.457   0.034   0.063  11.189  -0.072   0.055  -0.007   0.293  -0.228   0.076  -0.038
  0.151   4.521   0.377   0.086  -5.346  -0.149  -5.120  -0.739  -0.072   6.769  -0.016   0.011  -0.239  -0.132  -0.034   0.035
 -0.013   0.084  -0.289  -0.043   0.134   0.018  -0.060   0.235   0.055  -0.016   1.866  -0.145   0.051   0.056  -0.082  -0.007
  0.002  -0.013   0.026   0.007  -0.008  -0.002   0.018  -0.032  -0.007   0.011  -0.145   0.015  -0.005  -0.004   0.003   0.001
  0.000  -0.280  -0.013  -0.296   0.217  -0.043   0.324   0.011   0.293  -0.239   0.051  -0.005   0.414  -0.006  -0.003  -0.055
 -0.285  -0.207   0.063   0.188   0.123   0.285   0.225  -0.046  -0.228  -0.132   0.056  -0.004  -0.006   0.443   0.005   0.001
  0.034  -0.323   0.175  -0.065  -0.079  -0.039   0.304  -0.102   0.076  -0.034  -0.082   0.003  -0.003   0.005   0.406   0.000
  0.000   0.045   0.002   0.037  -0.032   0.000  -0.051  -0.001  -0.038   0.035  -0.007   0.001  -0.055   0.001   0.000   0.008
  0.035   0.027  -0.009  -0.024  -0.019  -0.036  -0.029   0.001   0.024   0.020  -0.008   0.001   0.001  -0.059  -0.001  -0.000
 -0.009   0.035  -0.025   0.012   0.016   0.008  -0.037   0.028  -0.017  -0.020   0.001  -0.000   0.001  -0.000  -0.050  -0.000
 total augmentation occupancy for first ion, spin component:           2
 -0.000   0.000   0.001  -0.000   0.000   0.000  -0.000  -0.000   0.000  -0.000  -0.000   0.000  -0.000  -0.000   0.000   0.000
  0.000   0.000  -0.000   0.000  -0.000  -0.000  -0.000   0.000  -0.000   0.000  -0.000   0.000  -0.000  -0.000  -0.000  -0.000
  0.001  -0.000  -0.002   0.001  -0.002  -0.000   0.000   0.001  -0.000   0.001   0.000   0.000  -0.000  -0.000   0.000  -0.000
 -0.000   0.000   0.001  -0.000   0.000   0.000  -0.000  -0.000   0.000  -0.000   0.000  -0.000  -0.000  -0.000  -0.000  -0.000
  0.000  -0.000  -0.002   0.000  -0.001  -0.000   0.000   0.001  -0.000   0.000   0.000  -0.000  -0.000  -0.000  -0.000   0.000
  0.000  -0.000  -0.000   0.000  -0.000   0.000   0.000   0.000  -0.000   0.000   0.000  -0.000   0.000   0.000  -0.000  -0.000
 -0.000  -0.000   0.000  -0.000   0.000   0.000   0.000  -0.000   0.000  -0.000   0.000  -0.000   0.000   0.000   0.000   0.000
 -0.000   0.000   0.001  -0.000   0.001   0.000  -0.000  -0.000   0.000  -0.000   0.000  -0.000   0.000   0.000  -0.000   0.000
  0.000  -0.000  -0.000   0.000  -0.000  -0.000   0.000   0.000   0.000   0.000  -0.000   0.000   0.000  -0.000   0.000   0.000
 -0.000   0.000   0.001  -0.000   0.000   0.000  -0.000  -0.000   0.000  -0.000  -0.000   0.000   0.000   0.000   0.000  -0.000
 -0.000  -0.000   0.000   0.000   0.000   0.000   0.000   0.000  -0.000  -0.000  -0.000   0.000   0.000   0.000   0.000  -0.000
  0.000   0.000   0.000  -0.000  -0.000  -0.000  -0.000  -0.000   0.000   0.000   0.000   0.000  -0.000  -0.000  -0.000  -0.000
 -0.000  -0.000  -0.000  -0.000  -0.000   0.000   0.000   0.000   0.000   0.000   0.000  -0.000  -0.000   0.000  -0.000   0.000
 -0.000  -0.000  -0.000  -0.000  -0.000   0.000   0.000   0.000  -0.000   0.000   0.000  -0.000   0.000  -0.000   0.000  -0.000
  0.000  -0.000   0.000  -0.000  -0.000  -0.000   0.000  -0.000   0.000   0.000   0.000  -0.000  -0.000   0.000  -0.000   0.000
  0.000  -0.000  -0.000  -0.000   0.000  -0.000   0.000   0.000   0.000  -0.000  -0.000  -0.000   0.000  -0.000   0.000  -0.000
 -0.000   0.000   0.000  -0.000   0.000   0.000   0.000  -0.000   0.000  -0.000   0.000   0.000  -0.000   0.000   0.000   0.000
  0.000  -0.000  -0.000   0.000   0.000  -0.000  -0.000   0.000  -0.000  -0.000  -0.000  -0.000   0.000  -0.000   0.000  -0.000


------------------------ aborting loop because EDIFF is reached ----------------------------------------


 


 total charge     
 
# of ion     s       p       d       tot
----------------------------------------
  1        0.435   0.662   4.365   5.462
  2        0.435   0.662   4.365   5.462
  3        0.435   0.662   4.365   5.462
  4        0.435   0.662   4.365   5.462
  5        1.560   3.487   0.000   5.046
  6        1.550   3.479   0.000   5.030
  7        1.560   3.486   0.000   5.046
  8        1.550   3.479   0.000   5.030
  9        1.560   3.487   0.000   5.046
 10        1.550   3.479   0.000   5.029
 11        1.560   3.486   0.000   5.046
 12        1.550   3.479   0.000   5.030
 13        0.113   0.252   0.000   0.365
 14        0.113   0.252   0.000   0.365
------------------------------------------------
tot       14.406  31.016  17.459  62.882
 


 magnetization (x)
 
# of ion     s       p       d       tot
----------------------------------------
  1       -0.000  -0.000  -0.001  -0.001
  2       -0.000  -0.000  -0.001  -0.001
  3       -0.000  -0.000  -0.001  -0.001
  4       -0.000  -0.000  -0.001  -0.001
  5        0.000  -0.000   0.000  -0.000
  6        0.000  -0.000   0.000  -0.000
  7        0.000  -0.000   0.000  -0.000
  8        0.000  -0.000   0.000  -0.000
  9        0.000  -0.000   0.000  -0.000
 10        0.000  -0.000   0.000  -0.000
 11        0.000  -0.000   0.000  -0.000
 12        0.000  -0.000   0.000  -0.000
 13       -0.000  -0.000   0.000  -0.000
 14       -0.000  -0.000   0.000  -0.000
------------------------------------------------
tot       -0.000  -0.000  -0.003  -0.003
 
    CHARGE:  cpu time    0.1292: real time    0.1299
    FORLOC:  cpu time    0.0003: real time    0.0003
    FORNL :  cpu time    1.0043: real time    1.0092
    STRESS:  cpu time    3.0196: real time    3.0337
    FORCOR:  cpu time    0.0086: real time    0.0086
    FORHAR:  cpu time    0.0012: real time    0.0012
    MIXING:  cpu time    0.0005: real time    0.0005
    OFIELD:  cpu time    0.0000: real time    0.0000

 ---------------------------------------------------------------------------------------------

         DFTD3 V3.0 Rev 1        
 IVDW         = 12
 DF pbe       
 parameters
 VDW_S6       =    1.0000
 VDW_S8       =    0.7875
 VDW_A1       =    0.4289
 VDW_A2       =    4.4407
 k1-k3        =   16.0000    1.3333   -4.0000
 VDW_RADIUS   =   50.2022 A
 VDW_CNRADIUS =   21.1671 A
 Edisp (eV)   -3.85686

 E6    (eV) :    -2.3146
 E8    (eV) :    -1.5422
 % E8        : 39.99
    FORVDW:  cpu time    0.0805: real time    0.0831

  FORCE on cell =-STRESS in cart. coord.  units (eV):
  Direction    XX          YY          ZZ          XY          YZ          ZX
  --------------------------------------------------------------------------------------
  Alpha Z   340.50954   340.50954   340.50954
  Ewald   -1150.64130 -1350.07080 -1306.71248     0.02038     0.04896     5.14980
  Hartree   433.00397   323.32241   302.97088     0.00964     0.00793     2.43839
  E(xc)    -362.34608  -358.28053  -358.75504     0.00004    -0.00020    -0.08659
  Local    -463.59361  -159.13998  -173.45524    -0.03136    -0.05526    -8.20835
  n-local  -258.79081  -251.62843  -247.17052    -0.00483     0.00447     0.96188
  augment    89.95689    89.40330    88.57740    -0.00017    -0.00025    -0.10835
  Kinetic  1375.86036  1369.86766  1358.02829     0.00497    -0.00322    -0.12425
  Fock        0.00000     0.00000     0.00000     0.00000     0.00000     0.00000
  vdW        -3.98284    -4.00729    -3.99793    -0.00001     0.00001    -0.01416
  -------------------------------------------------------------------------------------
  Total      -0.02389    -0.02411    -0.00511    -0.00136     0.00245     0.00836
  in kB      -0.27180    -0.27429    -0.05817    -0.01543     0.02782     0.09515
  external pressure =       -0.20 kB  Pullay stress =        0.00 kB


 VOLUME and BASIS-vectors are now :
 -----------------------------------------------------------------------------
  energy-cutoff  :      600.00
  volume of cell :      140.85
      direct lattice vectors                 reciprocal lattice vectors
     5.484939559 -0.000240468  0.012944030     0.182081020  0.000030704  0.100171104
    -0.000045850  5.009305422 -0.001452094     0.000008882  0.199628459 -0.000054993
    -2.816602954  0.001535692  5.119738823    -0.000460346  0.000056542  0.195069189

  length of vectors
     5.484954837  5.009305633  5.843370617     0.207816623  0.199628466  0.195069741


 FORCES acting on ions
    electron-ion (+dipol)            ewald-force                    non-local-force                 convergence-correction
 -----------------------------------------------------------------------------------------------
   -.214E+02 0.123E+02 0.107E+02   0.222E+02 -.120E+02 -.940E+01   -.736E+00 -.236E+00 -.133E+01   0.700E-03 -.114E-03 0.254E-03
   -.214E+02 -.123E+02 0.108E+02   0.222E+02 0.120E+02 -.948E+01   -.734E+00 0.243E+00 -.133E+01   0.721E-03 0.777E-04 0.248E-03
   0.214E+02 -.123E+02 -.107E+02   -.222E+02 0.121E+02 0.941E+01   0.737E+00 0.245E+00 0.132E+01   -.473E-03 0.489E-04 -.263E-03
   0.213E+02 0.122E+02 -.108E+02   -.221E+02 -.120E+02 0.945E+01   0.734E+00 -.237E+00 0.133E+01   -.489E-03 -.204E-04 -.316E-03
   0.350E+01 0.634E+01 -.276E+02   -.284E+01 -.918E+01 0.325E+02   -.655E+00 0.284E+01 -.486E+01   0.741E-03 -.624E-03 0.477E-03
   0.379E+01 0.400E+01 0.244E+02   -.328E+01 -.335E+01 -.300E+02   -.513E+00 -.653E+00 0.563E+01   -.251E-03 0.767E-03 -.186E-03
   -.354E+01 -.630E+01 0.277E+02   0.288E+01 0.913E+01 -.325E+02   0.655E+00 -.283E+01 0.487E+01   0.174E-03 0.100E-02 -.969E-03
   -.368E+01 -.398E+01 -.244E+02   0.316E+01 0.331E+01 0.300E+02   0.526E+00 0.667E+00 -.563E+01   -.717E-03 -.413E-03 0.617E-03
   -.359E+01 0.633E+01 0.276E+02   0.293E+01 -.916E+01 -.325E+02   0.656E+00 0.285E+01 0.485E+01   0.159E-03 -.621E-03 -.541E-03
   -.367E+01 0.399E+01 -.244E+02   0.315E+01 -.333E+01 0.300E+02   0.522E+00 -.661E+00 -.563E+01   -.709E-03 0.752E-04 0.100E-02
   0.354E+01 -.632E+01 -.276E+02   -.288E+01 0.915E+01 0.325E+02   -.653E+00 -.284E+01 -.487E+01   0.727E-03 0.182E-03 0.459E-04
   0.368E+01 -.400E+01 0.243E+02   -.314E+01 0.334E+01 -.300E+02   -.532E+00 0.663E+00 0.563E+01   -.252E-03 -.384E-03 -.566E-03
   0.360E-01 -.771E-02 0.125E-01   -.325E-01 0.792E-02 -.117E-01   -.463E-02 0.914E-03 -.203E-02   -.312E-04 -.229E-05 0.189E-04
   -.210E-01 -.949E-02 -.298E-02   0.187E-01 0.965E-02 0.238E-02   0.208E-02 0.177E-02 0.992E-03   -.271E-04 0.427E-05 0.241E-04
 -----------------------------------------------------------------------------------------------
   -.573E-02 -.275E-01 0.938E-02   -.224E-13 -.977E-14 0.533E-14   0.485E-02 0.560E-01 -.176E-01   0.272E-03 -.205E-04 -.155E-03
 
 
 POSITION                                       TOTAL-FORCE (eV/Angst)
 -----------------------------------------------------------------------------------
     -0.18134      2.51828      2.57991         0.001473      0.002493      0.002343
      3.96971      0.00672      0.02740         0.000960     -0.000745     -0.000005
      2.87513      2.51211      2.54707        -0.001778     -0.000838     -0.003687
     -1.27551      0.01453      5.10107        -0.000886      0.000082     -0.003571
     -1.40450      1.52258      3.83134         0.002722      0.001356      0.004532
      2.70072      4.07807      3.98819         0.000706      0.001554     -0.002306
      4.09810      3.50788      1.29566        -0.002000     -0.003264     -0.003494
     -0.00627      0.95203      1.13934        -0.000471     -0.001836      0.003163
     -0.05246      4.02708      3.84886        -0.002331      0.003931     -0.003548
      1.32787      1.57339      3.70503        -0.000727      0.001674      0.002762
      2.74671      1.00325      1.27806         0.002432     -0.001717      0.005783
      1.36621      3.45662      1.42154         0.001157     -0.001670     -0.002367
     -2.80158      2.51583      5.11741        -0.001138     -0.000920     -0.000639
      1.34598      0.00994      2.56423        -0.000121     -0.000099      0.001036
 -----------------------------------------------------------------------------------
    total drift:                               -0.000605      0.028539     -0.008401


--------------------------------------------------------------------------------------------------------



  FREE ENERGIE OF THE ION-ELECTRON SYSTEM (eV)
  ---------------------------------------------------
  free  energy   TOTEN  =      -116.19874445 eV

  energy  without entropy=     -116.19608969  energy(sigma->0) =     -116.19741707
 


--------------------------------------------------------------------------------------------------------


    POTLOK:  cpu time    0.0130: real time    0.0131


--------------------------------------------------------------------------------------------------------


 stress matrix after NEB project (eV)
     -0.02389     -0.00136      0.00836
     -0.00136     -0.02411      0.00245
      0.00836      0.00245     -0.00511
  FORCES: max atom, RMS     0.006504    0.004008
  FORCE total and by dimension    0.014998    0.005783
  Stress total and by dimension    0.036526    0.024113
     LOOP+:  cpu time  107.3989: real time  108.4287
    4ORBIT:  cpu time    0.0000: real time    0.0000
 


 total charge     
 
# of ion     s       p       d       tot
----------------------------------------
  1        0.435   0.662   4.365   5.462
  2        0.435   0.662   4.365   5.462
  3        0.435   0.662   4.365   5.462
  4        0.435   0.662   4.365   5.462
  5        1.560   3.487   0.000   5.046
  6        1.550   3.479   0.000   5.030
  7        1.560   3.486   0.000   5.046
  8        1.550   3.479   0.000   5.030
  9        1.560   3.487   0.000   5.046
 10        1.550   3.479   0.000   5.029
 11        1.560   3.486   0.000   5.046
 12        1.550   3.479   0.000   5.030
 13        0.113   0.252   0.000   0.365
 14        0.113   0.252   0.000   0.365
------------------------------------------------
tot       14.406  31.016  17.459  62.882
 


 magnetization (x)
 
# of ion     s       p       d       tot
----------------------------------------
  1       -0.000  -0.000  -0.001  -0.001
  2       -0.000  -0.000  -0.001  -0.001
  3       -0.000  -0.000  -0.001  -0.001
  4       -0.000  -0.000  -0.001  -0.001
  5        0.000  -0.000   0.000  -0.000
  6        0.000  -0.000   0.000  -0.000
  7        0.000  -0.000   0.000  -0.000
  8        0.000  -0.000   0.000  -0.000
  9        0.000  -0.000   0.000  -0.000
 10        0.000  -0.000   0.000  -0.000
 11        0.000  -0.000   0.000  -0.000
 12        0.000  -0.000   0.000  -0.000
 13       -0.000  -0.000   0.000  -0.000
 14       -0.000  -0.000   0.000  -0.000
------------------------------------------------
tot       -0.000  -0.000  -0.003  -0.003
 

 total amount of memory used by VASP on root node    57998. kBytes
========================================================================

   base      :      30000. kBytes
   nonlr-proj:       1618. kBytes
   fftplans  :        447. kBytes
   grid      :       1214. kBytes
   one-center:         62. kBytes
   wavefun   :      24657. kBytes
 
  
  
 General timing and accounting informations for this job:
 ========================================================
  
                  Total CPU time used (sec):      123.629
                            User time (sec):      119.763
                          System time (sec):        3.865
                         Elapsed time (sec):      128.959
  
                   Maximum memory used (kb):      546152.
                   Average memory used (kb):           0.
  
                          Minor page faults:       125529
                          Major page faults:          202
                 Voluntary context switches:         5905
