  33  33   0   0
  0.1022291E+02  0.4953742E-09  0.1088816E-08  0.6254866E-09  0.5000000E-15
  1.000000000000000E-004
  CAR 
 unknown system                          
     14.92910526    -17.79334092  301      3.17629334      1.00000000
    -17.793  0.0000E+00  0.0000E+00  0.0000E+00  0.0000E+00
    -17.684  0.0000E+00  0.0000E+00  0.0000E+00  0.0000E+00
    -17.575  0.0000E+00  0.0000E+00  0.0000E+00  0.0000E+00
    -17.466  0.0000E+00  0.0000E+00  0.0000E+00  0.0000E+00
    -17.357  0.0000E+00  0.0000E+00  0.0000E+00  0.0000E+00
    -17.248  0.0000E+00  0.0000E+00  0.0000E+00  0.0000E+00
    -17.139  0.0000E+00  0.0000E+00  0.0000E+00  0.0000E+00
    -17.030  0.0000E+00  0.0000E+00  0.0000E+00  0.0000E+00
    -16.921  0.0000E+00  0.0000E+00  0.0000E+00  0.0000E+00
    -16.812  0.0000E+00  0.0000E+00  0.0000E+00  0.0000E+00
    -16.703  0.0000E+00  0.0000E+00  0.0000E+00  0.0000E+00
    -16.594  0.0000E+00  0.0000E+00  0.0000E+00  0.0000E+00
    -16.484  0.0000E+00  0.0000E+00  0.0000E+00  0.0000E+00
    -16.375  0.6633E-06  0.7085E-06  0.7235E-07  0.7728E-07
    -16.266  0.1876E-02  0.1892E-02  0.2047E-03  0.2065E-03
    -16.157  0.1038E-01  0.1040E-01  0.1337E-02  0.1341E-02
    -16.048  0.1380E-01  0.1389E-01  0.2842E-02  0.2856E-02
    -15.939  0.1062E-01  0.1049E-01  0.4000E-02  0.4000E-02
    -15.830  0.7650E-02  0.7703E-02  0.4834E-02  0.4840E-02
    -15.721  0.4548E-01  0.4559E-01  0.9795E-02  0.9813E-02
    -15.612  0.5681E-01  0.5673E-01  0.1599E-01  0.1600E-01
    -15.503  0.1841E-01  0.1832E-01  0.1800E-01  0.1800E-01
    -15.394  0.1910E-01  0.1916E-01  0.2008E-01  0.2009E-01
    -15.285  0.3541E-01  0.3536E-01  0.2395E-01  0.2395E-01
    -15.176  0.4992E-03  0.4896E-03  0.2400E-01  0.2400E-01
    -15.066  0.3664E-02  0.4789E-02  0.2440E-01  0.2452E-01
    -14.957  0.1017E-01  0.9535E-02  0.2551E-01  0.2556E-01
    -14.848  0.4502E-02  0.4027E-02  0.2600E-01  0.2600E-01
    -14.739  0.4417E-02  0.5263E-02  0.2648E-01  0.2658E-01
    -14.630  0.1273E-01  0.1309E-01  0.2787E-01  0.2800E-01
    -14.521  0.2314E-01  0.1749E-01  0.3039E-01  0.2991E-01
    -14.412  0.1472E-01  0.1913E-01  0.3200E-01  0.3200E-01
    -14.303  0.3942E-06  0.1298E-04  0.3200E-01  0.3200E-01
    -14.194  0.0000E+00  0.0000E+00  0.3200E-01  0.3200E-01
    -14.085  0.0000E+00  0.0000E+00  0.3200E-01  0.3200E-01
    -13.976  0.0000E+00  0.0000E+00  0.3200E-01  0.3200E-01
    -13.867  0.0000E+00  0.0000E+00  0.3200E-01  0.3200E-01
    -13.758  0.0000E+00  0.0000E+00  0.3200E-01  0.3200E-01
    -13.648  0.0000E+00  0.0000E+00  0.3200E-01  0.3200E-01
    -13.539  0.0000E+00  0.0000E+00  0.3200E-01  0.3200E-01
    -13.430  0.0000E+00  0.0000E+00  0.3200E-01  0.3200E-01
    -13.321  0.0000E+00  0.0000E+00  0.3200E-01  0.3200E-01
    -13.212  0.0000E+00  0.0000E+00  0.3200E-01  0.3200E-01
    -13.103  0.0000E+00  0.0000E+00  0.3200E-01  0.3200E-01
    -12.994  0.0000E+00  0.0000E+00  0.3200E-01  0.3200E-01
    -12.885  0.0000E+00  0.0000E+00  0.3200E-01  0.3200E-01
    -12.776  0.0000E+00  0.0000E+00  0.3200E-01  0.3200E-01
    -12.667  0.0000E+00  0.0000E+00  0.3200E-01  0.3200E-01
    -12.558  0.0000E+00  0.0000E+00  0.3200E-01  0.3200E-01
    -12.449  0.0000E+00  0.0000E+00  0.3200E-01  0.3200E-01
    -12.340  0.0000E+00  0.0000E+00  0.3200E-01  0.3200E-01
    -12.231  0.0000E+00  0.0000E+00  0.3200E-01  0.3200E-01
    -12.121  0.0000E+00  0.0000E+00  0.3200E-01  0.3200E-01
    -12.012  0.0000E+00  0.0000E+00  0.3200E-01  0.3200E-01
    -11.903  0.0000E+00  0.0000E+00  0.3200E-01  0.3200E-01
    -11.794  0.0000E+00  0.0000E+00  0.3200E-01  0.3200E-01
    -11.685  0.0000E+00  0.0000E+00  0.3200E-01  0.3200E-01
    -11.576  0.0000E+00  0.0000E+00  0.3200E-01  0.3200E-01
    -11.467  0.0000E+00  0.0000E+00  0.3200E-01  0.3200E-01
    -11.358  0.0000E+00  0.0000E+00  0.3200E-01  0.3200E-01
    -11.249  0.0000E+00  0.0000E+00  0.3200E-01  0.3200E-01
    -11.140  0.0000E+00  0.0000E+00  0.3200E-01  0.3200E-01
    -11.031  0.0000E+00  0.0000E+00  0.3200E-01  0.3200E-01
    -10.922  0.0000E+00  0.0000E+00  0.3200E-01  0.3200E-01
    -10.813  0.0000E+00  0.0000E+00  0.3200E-01  0.3200E-01
    -10.703  0.0000E+00  0.0000E+00  0.3200E-01  0.3200E-01
    -10.594  0.0000E+00  0.0000E+00  0.3200E-01  0.3200E-01
    -10.485  0.0000E+00  0.0000E+00  0.3200E-01  0.3200E-01
    -10.376  0.0000E+00  0.0000E+00  0.3200E-01  0.3200E-01
    -10.267  0.0000E+00  0.0000E+00  0.3200E-01  0.3200E-01
    -10.158  0.0000E+00  0.0000E+00  0.3200E-01  0.3200E-01
    -10.049  0.0000E+00  0.0000E+00  0.3200E-01  0.3200E-01
     -9.940  0.0000E+00  0.0000E+00  0.3200E-01  0.3200E-01
     -9.831  0.0000E+00  0.0000E+00  0.3200E-01  0.3200E-01
     -9.722  0.0000E+00  0.0000E+00  0.3200E-01  0.3200E-01
     -9.613  0.0000E+00  0.0000E+00  0.3200E-01  0.3200E-01
     -9.504  0.0000E+00  0.0000E+00  0.3200E-01  0.3200E-01
     -9.395  0.0000E+00  0.0000E+00  0.3200E-01  0.3200E-01
     -9.286  0.0000E+00  0.0000E+00  0.3200E-01  0.3200E-01
     -9.176  0.0000E+00  0.0000E+00  0.3200E-01  0.3200E-01
     -9.067  0.0000E+00  0.0000E+00  0.3200E-01  0.3200E-01
     -8.958  0.0000E+00  0.0000E+00  0.3200E-01  0.3200E-01
     -8.849  0.0000E+00  0.0000E+00  0.3200E-01  0.3200E-01
     -8.740  0.0000E+00  0.0000E+00  0.3200E-01  0.3200E-01
     -8.631  0.0000E+00  0.0000E+00  0.3200E-01  0.3200E-01
     -8.522  0.0000E+00  0.0000E+00  0.3200E-01  0.3200E-01
     -8.413  0.0000E+00  0.0000E+00  0.3200E-01  0.3200E-01
     -8.304  0.0000E+00  0.0000E+00  0.3200E-01  0.3200E-01
     -8.195  0.0000E+00  0.0000E+00  0.3200E-01  0.3200E-01
     -8.086  0.0000E+00  0.0000E+00  0.3200E-01  0.3200E-01
     -7.977  0.0000E+00  0.0000E+00  0.3200E-01  0.3200E-01
     -7.868  0.0000E+00  0.0000E+00  0.3200E-01  0.3200E-01
     -7.758  0.0000E+00  0.0000E+00  0.3200E-01  0.3200E-01
     -7.649  0.0000E+00  0.0000E+00  0.3200E-01  0.3200E-01
     -7.540  0.0000E+00  0.0000E+00  0.3200E-01  0.3200E-01
     -7.431  0.0000E+00  0.0000E+00  0.3200E-01  0.3200E-01
     -7.322  0.0000E+00  0.0000E+00  0.3200E-01  0.3200E-01
     -7.213  0.0000E+00  0.0000E+00  0.3200E-01  0.3200E-01
     -7.104  0.0000E+00  0.0000E+00  0.3200E-01  0.3200E-01
     -6.995  0.0000E+00  0.0000E+00  0.3200E-01  0.3200E-01
     -6.886  0.0000E+00  0.0000E+00  0.3200E-01  0.3200E-01
     -6.777  0.0000E+00  0.0000E+00  0.3200E-01  0.3200E-01
     -6.668  0.0000E+00  0.0000E+00  0.3200E-01  0.3200E-01
     -6.559  0.0000E+00  0.0000E+00  0.3200E-01  0.3200E-01
     -6.450  0.0000E+00  0.0000E+00  0.3200E-01  0.3200E-01
     -6.340  0.0000E+00  0.0000E+00  0.3200E-01  0.3200E-01
     -6.231  0.0000E+00  0.0000E+00  0.3200E-01  0.3200E-01
     -6.122  0.0000E+00  0.0000E+00  0.3200E-01  0.3200E-01
     -6.013  0.0000E+00  0.0000E+00  0.3200E-01  0.3200E-01
     -5.904  0.0000E+00  0.0000E+00  0.3200E-01  0.3200E-01
     -5.795  0.0000E+00  0.0000E+00  0.3200E-01  0.3200E-01
     -5.686  0.0000E+00  0.0000E+00  0.3200E-01  0.3200E-01
     -5.577  0.0000E+00  0.0000E+00  0.3200E-01  0.3200E-01
     -5.468  0.0000E+00  0.0000E+00  0.3200E-01  0.3200E-01
     -5.359  0.0000E+00  0.0000E+00  0.3200E-01  0.3200E-01
     -5.250  0.0000E+00  0.0000E+00  0.3200E-01  0.3200E-01
     -5.141  0.0000E+00  0.0000E+00  0.3200E-01  0.3200E-01
     -5.032  0.0000E+00  0.0000E+00  0.3200E-01  0.3200E-01
     -4.923  0.0000E+00  0.0000E+00  0.3200E-01  0.3200E-01
     -4.813  0.0000E+00  0.0000E+00  0.3200E-01  0.3200E-01
     -4.704  0.0000E+00  0.0000E+00  0.3200E-01  0.3200E-01
     -4.595  0.0000E+00  0.0000E+00  0.3200E-01  0.3200E-01
     -4.486  0.0000E+00  0.0000E+00  0.3200E-01  0.3200E-01
     -4.377  0.0000E+00  0.0000E+00  0.3200E-01  0.3200E-01
     -4.268  0.0000E+00  0.0000E+00  0.3200E-01  0.3200E-01
     -4.159  0.0000E+00  0.0000E+00  0.3200E-01  0.3200E-01
     -4.050  0.0000E+00  0.0000E+00  0.3200E-01  0.3200E-01
     -3.941  0.0000E+00  0.0000E+00  0.3200E-01  0.3200E-01
     -3.832  0.0000E+00  0.0000E+00  0.3200E-01  0.3200E-01
     -3.723  0.0000E+00  0.0000E+00  0.3200E-01  0.3200E-01
     -3.614  0.0000E+00  0.0000E+00  0.3200E-01  0.3200E-01
     -3.505  0.8029E-15  0.5776E-15  0.3200E-01  0.3200E-01
     -3.395  0.5860E-04  0.5232E-04  0.3201E-01  0.3201E-01
     -3.286  0.7732E-02  0.7596E-02  0.3285E-01  0.3283E-01
     -3.177  0.1490E-01  0.1452E-01  0.3448E-01  0.3442E-01
     -3.068  0.2419E-01  0.2362E-01  0.3711E-01  0.3699E-01
     -2.959  0.2712E-01  0.2701E-01  0.4007E-01  0.3994E-01
     -2.850  0.2735E-01  0.2781E-01  0.4306E-01  0.4297E-01
     -2.741  0.1987E-01  0.1941E-01  0.4522E-01  0.4509E-01
     -2.632  0.2665E-01  0.2521E-01  0.4813E-01  0.4784E-01
     -2.523  0.3568E-01  0.3521E-01  0.5202E-01  0.5168E-01
     -2.414  0.3417E-01  0.3478E-01  0.5575E-01  0.5548E-01
     -2.305  0.2772E-01  0.2665E-01  0.5877E-01  0.5838E-01
     -2.196  0.2689E-01  0.2637E-01  0.6171E-01  0.6126E-01
     -2.087  0.3266E-01  0.2969E-01  0.6527E-01  0.6450E-01
     -1.977  0.2000E-01  0.1686E-01  0.6745E-01  0.6634E-01
     -1.868  0.2338E-01  0.1884E-01  0.7000E-01  0.6839E-01
     -1.759  0.2196E-01  0.1982E-01  0.7239E-01  0.7055E-01
     -1.650  0.1999E-01  0.2133E-01  0.7457E-01  0.7288E-01
     -1.541  0.2371E-01  0.2658E-01  0.7716E-01  0.7578E-01
     -1.432  0.2707E-01  0.2351E-01  0.8011E-01  0.7834E-01
     -1.323  0.1901E-01  0.2231E-01  0.8219E-01  0.8078E-01
     -1.214  0.2155E-01  0.2122E-01  0.8454E-01  0.8309E-01
     -1.105  0.2620E-01  0.2539E-01  0.8739E-01  0.8586E-01
     -0.996  0.2827E-01  0.2421E-01  0.9048E-01  0.8850E-01
     -0.887  0.2572E-01  0.2479E-01  0.9328E-01  0.9121E-01
     -0.778  0.3066E-01  0.3163E-01  0.9663E-01  0.9465E-01
     -0.669  0.3075E-01  0.3265E-01  0.9998E-01  0.9822E-01
     -0.560  0.3004E-01  0.3520E-01  0.1033E+00  0.1021E+00
     -0.450  0.3666E-01  0.4033E-01  0.1073E+00  0.1065E+00
     -0.341  0.3749E-01  0.3708E-01  0.1113E+00  0.1105E+00
     -0.232  0.3360E-01  0.3695E-01  0.1150E+00  0.1145E+00
     -0.123  0.2724E-01  0.2280E-01  0.1180E+00  0.1170E+00
     -0.014  0.2236E-01  0.2853E-01  0.1204E+00  0.1201E+00
      0.095  0.9721E-02  0.1230E-01  0.1215E+00  0.1215E+00
      0.204  0.7354E-02  0.6710E-02  0.1223E+00  0.1222E+00
      0.313  0.9400E-02  0.6852E-02  0.1233E+00  0.1229E+00
      0.422  0.3052E-01  0.3084E-01  0.1266E+00  0.1263E+00
      0.531  0.9746E-02  0.1279E-01  0.1277E+00  0.1277E+00
      0.640  0.2706E-02  0.2664E-02  0.1280E+00  0.1280E+00
      0.749  0.3591E-04  0.1200E-04  0.1280E+00  0.1280E+00
      0.858  0.0000E+00  0.0000E+00  0.1280E+00  0.1280E+00
      0.968  0.0000E+00  0.0000E+00  0.1280E+00  0.1280E+00
      1.077  0.0000E+00  0.0000E+00  0.1280E+00  0.1280E+00
      1.186  0.0000E+00  0.0000E+00  0.1280E+00  0.1280E+00
      1.295  0.0000E+00  0.0000E+00  0.1280E+00  0.1280E+00
      1.404  0.0000E+00  0.0000E+00  0.1280E+00  0.1280E+00
      1.513  0.0000E+00  0.0000E+00  0.1280E+00  0.1280E+00
      1.622  0.0000E+00  0.0000E+00  0.1280E+00  0.1280E+00
      1.731  0.0000E+00  0.0000E+00  0.1280E+00  0.1280E+00
      1.840  0.0000E+00  0.0000E+00  0.1280E+00  0.1280E+00
      1.949  0.0000E+00  0.0000E+00  0.1280E+00  0.1280E+00
      2.058  0.0000E+00  0.0000E+00  0.1280E+00  0.1280E+00
      2.167  0.0000E+00  0.0000E+00  0.1280E+00  0.1280E+00
      2.276  0.0000E+00  0.0000E+00  0.1280E+00  0.1280E+00
      2.386  0.0000E+00  0.0000E+00  0.1280E+00  0.1280E+00
      2.495  0.0000E+00  0.0000E+00  0.1280E+00  0.1280E+00
      2.604  0.0000E+00  0.0000E+00  0.1280E+00  0.1280E+00
      2.713  0.8715E-16  0.0000E+00  0.1280E+00  0.1280E+00
      2.822  0.1783E-04  0.0000E+00  0.1280E+00  0.1280E+00
      2.931  0.6010E-02  0.0000E+00  0.1287E+00  0.1280E+00
      3.040  0.1171E-01  0.0000E+00  0.1299E+00  0.1280E+00
      3.149  0.5974E-03  0.0000E+00  0.1300E+00  0.1280E+00
      3.258  0.2333E-11  0.0000E+00  0.1300E+00  0.1280E+00
      3.367  0.0000E+00  0.0000E+00  0.1300E+00  0.1280E+00
      3.476  0.0000E+00  0.0000E+00  0.1300E+00  0.1280E+00
      3.585  0.0000E+00  0.0000E+00  0.1300E+00  0.1280E+00
      3.694  0.0000E+00  0.0000E+00  0.1300E+00  0.1280E+00
      3.803  0.1323E-11  0.3669E-12  0.1300E+00  0.1280E+00
      3.913  0.1162E-02  0.7195E-03  0.1301E+00  0.1281E+00
      4.022  0.3814E-01  0.3602E-01  0.1343E+00  0.1320E+00
      4.131  0.3325E-01  0.3539E-01  0.1379E+00  0.1359E+00
      4.240  0.8102E-03  0.1223E-02  0.1380E+00  0.1360E+00
      4.349  0.8390E-02  0.7891E-02  0.1389E+00  0.1369E+00
      4.458  0.2818E-01  0.2838E-01  0.1420E+00  0.1400E+00
      4.567  0.4656E-02  0.4961E-02  0.1425E+00  0.1405E+00
      4.676  0.1253E-01  0.1006E-01  0.1439E+00  0.1416E+00
      4.785  0.3212E-01  0.1615E-01  0.1474E+00  0.1434E+00
      4.894  0.3829E-01  0.3853E-01  0.1515E+00  0.1476E+00
      5.003  0.2222E-01  0.2158E-01  0.1540E+00  0.1499E+00
      5.112  0.2031E-01  0.2077E-01  0.1562E+00  0.1522E+00
      5.221  0.2306E-01  0.2072E-01  0.1587E+00  0.1544E+00
      5.331  0.1797E-01  0.2114E-01  0.1607E+00  0.1567E+00
      5.440  0.2485E-01  0.1798E-01  0.1634E+00  0.1587E+00
      5.549  0.6079E-02  0.7895E-02  0.1640E+00  0.1596E+00
      5.658  0.1332E-01  0.3949E-02  0.1655E+00  0.1600E+00
      5.767  0.1301E-01  0.3250E-04  0.1669E+00  0.1600E+00
      5.876  0.8025E-02  0.7663E-02  0.1678E+00  0.1608E+00
      5.985  0.2008E-02  0.1066E-01  0.1680E+00  0.1620E+00
      6.094  0.2706E-07  0.6827E-02  0.1680E+00  0.1627E+00
      6.203  0.0000E+00  0.1802E-01  0.1680E+00  0.1647E+00
      6.312  0.0000E+00  0.3951E-02  0.1680E+00  0.1651E+00
      6.421  0.4068E-08  0.1209E-01  0.1680E+00  0.1665E+00
      6.530  0.3108E-03  0.1327E-01  0.1680E+00  0.1679E+00
      6.639  0.4764E-03  0.1308E-02  0.1681E+00  0.1681E+00
      6.748  0.3588E-03  0.6799E-03  0.1681E+00  0.1681E+00
      6.858  0.6299E-04  0.2911E-04  0.1681E+00  0.1681E+00
      6.967  0.3190E-03  0.3529E-03  0.1682E+00  0.1682E+00
      7.076  0.6049E-04  0.1672E-05  0.1682E+00  0.1682E+00
      7.185  0.2480E-02  0.2021E-02  0.1684E+00  0.1684E+00
      7.294  0.2442E-02  0.2941E-02  0.1687E+00  0.1687E+00
      7.403  0.9354E-03  0.8267E-03  0.1688E+00  0.1688E+00
      7.512  0.1382E-02  0.1446E-02  0.1690E+00  0.1690E+00
      7.621  0.4700E-02  0.3196E-02  0.1695E+00  0.1693E+00
      7.730  0.1926E-02  0.3227E-02  0.1697E+00  0.1697E+00
      7.839  0.2174E-02  0.2306E-02  0.1699E+00  0.1699E+00
      7.948  0.3221E-02  0.2253E-02  0.1703E+00  0.1702E+00
      8.057  0.8172E-03  0.1668E-02  0.1704E+00  0.1703E+00
      8.166  0.2183E-02  0.1390E-02  0.1706E+00  0.1705E+00
      8.276  0.2898E-02  0.3577E-02  0.1709E+00  0.1709E+00
      8.385  0.2542E-02  0.2487E-02  0.1712E+00  0.1711E+00
      8.494  0.5843E-02  0.5168E-02  0.1718E+00  0.1717E+00
      8.603  0.1168E-01  0.1249E-01  0.1731E+00  0.1731E+00
      8.712  0.3155E-02  0.2717E-02  0.1734E+00  0.1734E+00
      8.821  0.6269E-02  0.4350E-02  0.1741E+00  0.1738E+00
      8.930  0.8146E-02  0.8739E-02  0.1750E+00  0.1748E+00
      9.039  0.3095E-02  0.4263E-02  0.1754E+00  0.1753E+00
      9.148  0.1268E-02  0.1839E-02  0.1755E+00  0.1755E+00
      9.257  0.2395E-02  0.1803E-02  0.1758E+00  0.1757E+00
      9.366  0.5371E-02  0.5440E-02  0.1763E+00  0.1763E+00
      9.475  0.8660E-02  0.8584E-02  0.1773E+00  0.1772E+00
      9.584  0.6060E-02  0.5170E-02  0.1780E+00  0.1778E+00
      9.694  0.8604E-02  0.9167E-02  0.1789E+00  0.1788E+00
      9.803  0.5382E-02  0.4819E-02  0.1795E+00  0.1793E+00
      9.912  0.9839E-02  0.9856E-02  0.1805E+00  0.1804E+00
     10.021  0.9506E-02  0.8952E-02  0.1816E+00  0.1813E+00
     10.130  0.9410E-02  0.1036E-01  0.1826E+00  0.1825E+00
     10.239  0.5092E-02  0.4997E-02  0.1832E+00  0.1830E+00
     10.348  0.1033E-01  0.9416E-02  0.1843E+00  0.1840E+00
     10.457  0.1311E-01  0.1323E-01  0.1857E+00  0.1855E+00
     10.566  0.1233E-01  0.1321E-01  0.1871E+00  0.1869E+00
     10.675  0.1177E-01  0.1014E-01  0.1884E+00  0.1880E+00
     10.784  0.9946E-02  0.1157E-01  0.1894E+00  0.1893E+00
     10.893  0.1125E-01  0.9771E-02  0.1907E+00  0.1904E+00
     11.002  0.8782E-02  0.1029E-01  0.1916E+00  0.1915E+00
     11.111  0.9308E-02  0.7165E-02  0.1926E+00  0.1923E+00
     11.221  0.1492E-01  0.1491E-01  0.1943E+00  0.1939E+00
     11.330  0.1003E-01  0.1150E-01  0.1954E+00  0.1951E+00
     11.439  0.1280E-01  0.1022E-01  0.1968E+00  0.1962E+00
     11.548  0.5072E-02  0.8304E-02  0.1973E+00  0.1972E+00
     11.657  0.8184E-02  0.7144E-02  0.1982E+00  0.1979E+00
     11.766  0.5273E-02  0.7266E-02  0.1988E+00  0.1987E+00
     11.875  0.3144E-02  0.2196E-02  0.1991E+00  0.1990E+00
     11.984  0.3495E-02  0.3800E-02  0.1995E+00  0.1994E+00
     12.093  0.3726E-02  0.3391E-02  0.1999E+00  0.1998E+00
     12.202  0.3504E-02  0.4196E-02  0.2003E+00  0.2002E+00
     12.311  0.5581E-02  0.5071E-02  0.2009E+00  0.2008E+00
     12.420  0.9963E-02  0.7220E-02  0.2020E+00  0.2015E+00
     12.529  0.6675E-02  0.8141E-02  0.2027E+00  0.2024E+00
     12.639  0.1494E-01  0.1500E-01  0.2043E+00  0.2041E+00
     12.748  0.8264E-02  0.9340E-02  0.2052E+00  0.2051E+00
     12.857  0.4204E-02  0.4688E-02  0.2057E+00  0.2056E+00
     12.966  0.1065E-01  0.7662E-02  0.2069E+00  0.2064E+00
     13.075  0.4030E-02  0.8018E-02  0.2073E+00  0.2073E+00
     13.184  0.3001E-02  0.3858E-02  0.2076E+00  0.2077E+00
     13.293  0.3341E-02  0.1577E-02  0.2080E+00  0.2079E+00
     13.402  0.4079E-04  0.1079E-03  0.2080E+00  0.2079E+00
     13.511  0.0000E+00  0.7401E-03  0.2080E+00  0.2080E+00
     13.620  0.0000E+00  0.4078E-06  0.2080E+00  0.2080E+00
     13.729  0.0000E+00  0.0000E+00  0.2080E+00  0.2080E+00
     13.838  0.0000E+00  0.0000E+00  0.2080E+00  0.2080E+00
     13.947  0.0000E+00  0.0000E+00  0.2080E+00  0.2080E+00
     14.057  0.0000E+00  0.0000E+00  0.2080E+00  0.2080E+00
     14.166  0.0000E+00  0.0000E+00  0.2080E+00  0.2080E+00
     14.275  0.0000E+00  0.0000E+00  0.2080E+00  0.2080E+00
     14.384  0.0000E+00  0.0000E+00  0.2080E+00  0.2080E+00
     14.493  0.0000E+00  0.0000E+00  0.2080E+00  0.2080E+00
     14.602  0.0000E+00  0.0000E+00  0.2080E+00  0.2080E+00
     14.711  0.0000E+00  0.0000E+00  0.2080E+00  0.2080E+00
     14.820  0.0000E+00  0.0000E+00  0.2080E+00  0.2080E+00
     14.929  0.0000E+00  0.0000E+00  0.2080E+00  0.2080E+00
