 vasp.5.4.1 05Feb16 (build Apr 23 2022 14:15:44) complex                        
  
 executed on           IFC91_ompi date 2024.11.25  16:59:17
 running on   64 total cores
 distrk:  each k-point on   64 cores,    1 groups
 distr:  one band on NCORES_PER_BAND=   8 cores,    8 groups


--------------------------------------------------------------------------------------------------------


 INCAR:
 POTCAR:    PAW_PBE Li 17Jan2003                  
 POTCAR:    PAW_PBE V 08Apr2002                   
 POTCAR:    PAW_PBE O 08Apr2002                   
 POTCAR:    PAW_PBE Li 17Jan2003                  
   VRHFIN =Li: s1p0                                                             
   LEXCH  = PE                                                                  
   EATOM  =     5.3001 eV,    0.3895 Ry                                         
                                                                                
   TITEL  = PAW_PBE Li 17Jan2003                                                
   LULTRA =        F    use ultrasoft PP ?                                      
   IUNSCR =        1    unscreen: 0-lin 1-nonlin 2-no                           
   RPACOR =    1.500    partial core radius                                     
   POMASS =    7.010; ZVAL   =    1.000    mass and valenz                      
   RCORE  =    2.050    outmost cutoff radius                                   
   RWIGS  =    2.600; RWIGS  =    1.376    wigner-seitz radius (au A)           
   ENMAX  =  140.000; ENMIN  =  100.000 eV                                      
   ICORE  =        2    local potential                                         
   LCOR   =        T    correct aug charges                                     
   LPAW   =        T    paw PP                                                  
   EAUG   =  331.638                                                            
   DEXC   =    0.000                                                            
   RMAX   =    2.098    core radius for proj-oper                               
   RAUG   =    1.300    factor for augmentation sphere                          
   RDEP   =    2.094    radius for radial grids                                 
   RDEPT  =    1.810    core radius for aug-charge                              
                                                                                
   Atomic configuration                                                         
    4 entries                                                                   
     n  l   j            E        occ.                                          
     1  0  0.50       -51.8549   2.0000                                         
     2  0  0.50        -2.8742   1.0000                                         
     2  1  0.50        -1.3606   0.0000                                         
     3  2  1.50        -1.3606   0.0000                                         
   Description                                                                  
     l       E           TYP  RCUT    TYP  RCUT                                 
     0     -2.8742052     23  2.050                                             
     0     27.2116520     23  2.050                                             
     1     -1.3605826     23  2.050                                             
     2     -1.3605826     23  2.050                                             
  local pseudopotential read in
  partial core-charges read in
  partial kinetic energy density read in
  atomic valenz-charges read in
  non local Contribution for L=           0  read in
    real space projection operators read in
  non local Contribution for L=           0  read in
    real space projection operators read in
  non local Contribution for L=           1  read in
    real space projection operators read in
    PAW grid and wavefunctions read in
 
   number of l-projection  operators is LMAX  =           3
   number of lm-projection operators is LMMAX =           5
 
 POTCAR:    PAW_PBE V 08Apr2002                   
   VRHFIN =V: p6 d4 s1                                                          
   LEXCH  = PE                                                                  
   EATOM  =   170.8679 eV,   12.5584 Ry                                         
                                                                                
   TITEL  = PAW_PBE V 08Apr2002                                                 
   LULTRA =        F    use ultrasoft PP ?                                      
   IUNSCR =        1    unscreen: 0-lin 1-nonlin 2-no                           
   RPACOR =    2.000    partial core radius                                     
   POMASS =   50.941; ZVAL   =    5.000    mass and valenz                      
   RCORE  =    2.700    outmost cutoff radius                                   
   RWIGS  =    2.500; RWIGS  =    1.323    wigner-seitz radius (au A)           
   ENMAX  =  192.543; ENMIN  =  144.408 eV                                      
   RCLOC  =    1.779    cutoff for local pot                                    
   LCOR   =        T    correct aug charges                                     
   LPAW   =        T    paw PP                                                  
   EAUG   =  358.662                                                            
   DEXC   =    0.000                                                            
   RMAX   =    2.768    core radius for proj-oper                               
   RAUG   =    1.300    factor for augmentation sphere                          
   RDEP   =    2.762    radius for radial grids                                 
   RDEPT  =    2.240    core radius for aug-charge                              
                                                                                
   Atomic configuration                                                         
    9 entries                                                                   
     n  l   j            E        occ.                                          
     1  0  0.50     -5360.7193   2.0000                                         
     2  0  0.50      -598.4546   2.0000                                         
     2  1  1.50      -499.0155   6.0000                                         
     3  0  0.50       -66.5711   2.0000                                         
     3  1  1.50       -40.5282   6.0000                                         
     3  2  2.50        -2.4291   4.0000                                         
     4  0  0.50        -3.8743   1.0000                                         
     4  1  0.50        -2.7212   0.0000                                         
     4  3  2.50        -1.3606   0.0000                                         
   Description                                                                  
     l       E           TYP  RCUT    TYP  RCUT                                 
     2     -2.4290901     23  2.700                                             
     2     -3.7896727     23  2.700                                             
     0     -3.8742752     23  2.700                                             
     0     27.2116520     23  2.700                                             
     1     -2.7211652     23  2.700                                             
     1     27.2116520     23  2.700                                             
  local pseudopotential read in
  partial core-charges read in
  partial kinetic energy density read in
  atomic valenz-charges read in
  non local Contribution for L=           2  read in
    real space projection operators read in
  non local Contribution for L=           2  read in
    real space projection operators read in
  non local Contribution for L=           0  read in
    real space projection operators read in
  non local Contribution for L=           0  read in
    real space projection operators read in
  non local Contribution for L=           1  read in
    real space projection operators read in
  non local Contribution for L=           1  read in
    real space projection operators read in
    PAW grid and wavefunctions read in
 
   number of l-projection  operators is LMAX  =           6
   number of lm-projection operators is LMMAX =          18
 
 POTCAR:    PAW_PBE O 08Apr2002                   
   VRHFIN =O: s2p4                                                              
   LEXCH  = PE                                                                  
   EATOM  =   432.3788 eV,   31.7789 Ry                                         
                                                                                
   TITEL  = PAW_PBE O 08Apr2002                                                 
   LULTRA =        F    use ultrasoft PP ?                                      
   IUNSCR =        1    unscreen: 0-lin 1-nonlin 2-no                           
   RPACOR =    1.200    partial core radius                                     
   POMASS =   16.000; ZVAL   =    6.000    mass and valenz                      
   RCORE  =    1.520    outmost cutoff radius                                   
   RWIGS  =    1.550; RWIGS  =    0.820    wigner-seitz radius (au A)           
   ENMAX  =  400.000; ENMIN  =  300.000 eV                                      
   ICORE  =        2    local potential                                         
   LCOR   =        T    correct aug charges                                     
   LPAW   =        T    paw PP                                                  
   EAUG   =  605.392                                                            
   DEXC   =    0.000                                                            
   RMAX   =    1.553    core radius for proj-oper                               
   RAUG   =    1.300    factor for augmentation sphere                          
   RDEP   =    1.550    radius for radial grids                                 
   RDEPT  =    1.329    core radius for aug-charge                              
                                                                                
   Atomic configuration                                                         
    4 entries                                                                   
     n  l   j            E        occ.                                          
     1  0  0.50      -514.6923   2.0000                                         
     2  0  0.50       -23.9615   2.0000                                         
     2  1  0.50        -9.0305   4.0000                                         
     3  2  1.50        -9.5241   0.0000                                         
   Description                                                                  
     l       E           TYP  RCUT    TYP  RCUT                                 
     0    -23.9615318     23  1.200                                             
     0     -9.5240782     23  1.200                                             
     1     -9.0304911     23  1.520                                             
     1      8.1634956     23  1.520                                             
     2     -9.5240782      7  1.500                                             
  local pseudopotential read in
  partial core-charges read in
  partial kinetic energy density read in
  kinetic energy density of atom read in
  atomic valenz-charges read in
  non local Contribution for L=           0  read in
    real space projection operators read in
  non local Contribution for L=           0  read in
    real space projection operators read in
  non local Contribution for L=           1  read in
    real space projection operators read in
  non local Contribution for L=           1  read in
    real space projection operators read in
    PAW grid and wavefunctions read in
 
   number of l-projection  operators is LMAX  =           4
   number of lm-projection operators is LMMAX =           8
 
 Optimization of the real space projectors (new method)

 maximal supplied QI-value         = 18.33
 optimisation between [QCUT,QGAM] = [ 12.46, 24.93] = [ 43.51,174.03] Ry 
 Optimized for a Real-space Cutoff    1.13 Angstroem

   l    n(q)    QCUT    max X(q) W(low)/X(q) W(high)/X(q)  e(spline) 
   0      8    12.465    33.825    0.12E-03    0.29E-03    0.99E-07
   0      8    12.465     8.944    0.86E-04    0.22E-03    0.72E-07
   1      8    12.465     4.214    0.27E-03    0.11E-03    0.82E-07
 Optimization of the real space projectors (new method)

 maximal supplied QI-value         = 13.98
 optimisation between [QCUT,QGAM] = [ 12.45, 25.03] = [ 43.38,175.46] Ry 
 Optimized for a Real-space Cutoff    1.56 Angstroem

   l    n(q)    QCUT    max X(q) W(low)/X(q) W(high)/X(q)  e(spline) 
   2     11    12.446    96.114    0.19E-03    0.47E-04    0.85E-06
   2     11    12.446    88.986    0.19E-03    0.46E-04    0.86E-06
   0     12    12.446    20.919    0.37E-04    0.64E-04    0.43E-06
   0     12    12.446     9.593    0.25E-04    0.48E-04    0.33E-06
   1     11    12.446    11.615    0.75E-04    0.30E-04    0.59E-06
   1     11    12.446     7.031    0.53E-04    0.23E-04    0.40E-06
 Optimization of the real space projectors (new method)

 maximal supplied QI-value         = 24.76
 optimisation between [QCUT,QGAM] = [ 12.38, 25.00] = [ 42.90,175.06] Ry 
 Optimized for a Real-space Cutoff    1.13 Angstroem

   l    n(q)    QCUT    max X(q) W(low)/X(q) W(high)/X(q)  e(spline) 
   0      8    12.378    20.381    0.16E-03    0.54E-05    0.27E-06
   0      8    12.378    15.268    0.17E-03    0.61E-05    0.29E-06
   1      8    12.378     5.964    0.38E-03    0.23E-03    0.28E-06
   1      8    12.378     5.382    0.33E-03    0.20E-03    0.25E-06
  PAW_PBE Li 17Jan2003                  :
 energy of atom  1       EATOM=   -5.3001
 kinetic energy error for atom=    0.0000 (will be added to EATOM!!)
  PAW_PBE V 08Apr2002                   :
 energy of atom  2       EATOM= -170.8679
 kinetic energy error for atom=    0.0002 (will be added to EATOM!!)
  PAW_PBE O 08Apr2002                   :
 energy of atom  3       EATOM= -432.3788
 kinetic energy error for atom=    0.0168 (will be added to EATOM!!)
 
 
 POSCAR: Li  V  O                                
  positions in cartesian coordinates
  No initial velocities read in
 exchange correlation table for  LEXCH =        8
   RHO(1)=    0.500       N(1)  =     2000
   RHO(2)=  100.500       N(2)  =     4000

 VTST: version 3.1, (03/28/14)

 CHAIN: initializing optimizer
 
 OPT: Using VASP Conjugate-Gradient optimizer
 CHAIN: Read ICHAIN            0
 
 POSCAR: Li  V  O                                
  positions in cartesian coordinates
  No initial velocities read in
 


--------------------------------------------------------------------------------------------------------


 ion  position               nearest neighbor table
   1  0.015  0.329  0.258-  18 1.91  25 1.93  21 1.96  24 1.97   6 3.00  11 3.00   2 3.04  14 3.06
                            15 3.07  15 3.09   2 3.10   4 3.11   6 3.11   4 3.15  16 3.16   5 3.20
   2  0.520  0.163  0.266-  23 1.89  19 1.95  18 1.97  21 1.99   5 3.01   1 3.04   3 3.05  14 3.05
                            17 3.08  14 3.08   1 3.10   5 3.13  15 3.14   6 3.14  12 3.20   3 3.21
   3  0.520  0.163  0.753-  23 1.89  19 1.96  20 1.97  22 1.99   5 3.01   4 3.04   2 3.05  14 3.05
                            17 3.08  14 3.08   4 3.10   5 3.12  15 3.14   6 3.14  12 3.20   2 3.21
   4  0.015  0.329  0.761-  20 1.91  25 1.93  22 1.96  24 1.97   6 3.00  11 3.00   3 3.04  14 3.06
                            15 3.07  15 3.09   3 3.10   1 3.11   6 3.11   1 3.15  16 3.16   5 3.20
   5  0.004  0.074  0.510-  23 1.92  20 2.03  18 2.03  33 2.03  17 2.93   2 3.01   3 3.01  10 3.06
                             7 3.06  17 3.08   3 3.12   2 3.13  14 3.13  14 3.13   4 3.20   1 3.20
   6  0.503  0.411  0.010-  27 1.94  22 1.96  21 1.97  24 1.99   1 3.00   4 3.00  16 3.01   1 3.11
                             4 3.11  15 3.13  15 3.13   3 3.14   2 3.14   9 3.17   8 3.17  16 3.18
   7  0.012  0.841  0.235-  32 1.85  33 1.90  29 1.96  26 2.03  13 2.21  10 2.81  12 2.88  17 3.00
                            12 3.01  14 3.02   8 3.03   5 3.06  16 3.16   8 3.22
   8  0.485  0.666  0.251-  29 1.89  27 1.94  26 1.95  31 2.04  13 2.48  11 2.99   9 3.02   7 3.03
                            16 3.04  12 3.04  16 3.05   6 3.17  17 3.18  15 3.18   7 3.22   9 3.24
   9  0.486  0.666  0.768-  30 1.89  27 1.94  28 1.96  31 2.04  13 2.48  11 2.99   8 3.02  10 3.03
                            16 3.04  12 3.04  16 3.05   6 3.17  17 3.18  15 3.18  10 3.22   8 3.24
  10  0.012  0.841  0.785-  32 1.85  33 1.90  30 1.96  28 2.03  13 2.21   7 2.81  12 2.88  17 3.00
                            12 3.01  14 3.02   9 3.03   5 3.06  16 3.16   9 3.22
  11  0.030  0.564  0.510-  25 1.84  28 1.99  26 1.99  31 2.04  13 2.25  15 2.91   8 2.99   9 2.99
                             1 3.00   4 3.00  15 3.02  16 3.14  16 3.14
  12  0.529  0.908  0.010-  30 1.97  29 1.97  32 1.99  19 2.03   7 2.88  10 2.88  10 3.01   7 3.01
                             8 3.04   9 3.04  14 3.07  17 3.14  17 3.14   2 3.20   3 3.20  14 3.22
  13  0.823  0.747  0.510-  29 1.95  30 1.95  31 2.17  33 2.18  10 2.21   7 2.21  11 2.25  28 2.36
                            26 2.36   9 2.48   8 2.48  17 2.52
  14  0.014  0.087  0.010-  19 1.73  18 1.74  20 1.74  32 1.74   7 3.02  10 3.02   2 3.05   3 3.05
                             4 3.06   1 3.06  12 3.07   3 3.08   2 3.08   5 3.13   5 3.13  12 3.22
  15  0.514  0.415  0.510-  22 1.73  21 1.73  25 1.73  31 1.76  11 2.91  11 3.02   1 3.07   4 3.07
                             4 3.09   1 3.09   6 3.13   6 3.13   3 3.14   2 3.14   9 3.18   8 3.18
  16  0.985  0.581  0.010-  27 1.72  24 1.73  26 1.75  28 1.75   6 3.01   8 3.04   9 3.04   9 3.05
                             8 3.05  11 3.14  11 3.14  10 3.16   7 3.16   1 3.16   4 3.16   6 3.18
  17  0.482  0.917  0.510-  23 1.78  33 1.80  29 1.86  30 1.86  13 2.52   5 2.93  10 3.00   7 3.00
                             3 3.08   2 3.08   5 3.08  12 3.14  12 3.14   9 3.18   8 3.18
  18  0.123  0.162  0.239-  14 1.74   1 1.91   2 1.97   5 2.03
  19  0.665  0.085  0.010-  14 1.73   2 1.95   3 1.96  12 2.03
  20  0.123  0.162  0.780-  14 1.74   4 1.91   3 1.97   5 2.03
  21  0.623  0.340  0.282-  15 1.73   1 1.96   6 1.97   2 1.99
  22  0.623  0.340  0.737-  15 1.73   4 1.96   6 1.96   3 1.99
  23  0.615  0.070  0.510-  17 1.78   3 1.89   2 1.89   5 1.92
  24  0.105  0.432  0.010-  16 1.73   1 1.97   4 1.97   6 1.99
  25  0.164  0.407  0.510-  15 1.73  11 1.84   1 1.93   4 1.93
  26  0.091  0.658  0.242-  16 1.75   8 1.95  11 1.99   7 2.03  13 2.36
  27  0.637  0.579  0.010-  16 1.72   6 1.94   8 1.94   9 1.94
  28  0.091  0.658  0.778-  16 1.75   9 1.96  11 1.99  10 2.03  13 2.36
  29  0.621  0.828  0.282-  17 1.86   8 1.89  13 1.95   7 1.96  12 1.97
  30  0.621  0.828  0.738-  17 1.86   9 1.89  13 1.95  10 1.96  12 1.97
  31  0.618  0.570  0.510-  15 1.76  11 2.04   9 2.04   8 2.04  13 2.17
  32  0.133  0.937  0.010-  14 1.74   7 1.85  10 1.85  12 1.99
  33  0.121  0.895  0.510-  17 1.80  10 1.90   7 1.90   5 2.03  13 2.18
 
  LATTYP: Found a simple monoclinic cell.
 ALAT       =    11.9220365461
 B/A-ratio  =     0.5246474670
 C/A-ratio  =     1.8696283822
 COS(beta)  =    -0.9791866450
  
  Lattice vectors:
  
 A1 = (  -4.9075090241, -10.8651411169,   0.0043696490)
 A2 = (   0.0004144607,   0.0022686577,   6.2548658501)
 A3 = (   4.8613291107,  21.7531977611,  -0.0080807900)


Analysis of symmetry for initial positions (statically):
=====================================================================
 Subroutine PRICEL returns:
 Original cell was already a primitive cell.
 

 Routine SETGRP: Setting up the symmetry group for a 
 simple monoclinic supercell.


 Subroutine GETGRP returns: Found  1 space group operations
 (whereof  1 operations were pure point group operations)
 out of a pool of  4 trial point group operations.


The static configuration has the point symmetry C_1 .


Analysis of symmetry for dynamics (positions and initial velocities):
=====================================================================
 Subroutine PRICEL returns:
 Original cell was already a primitive cell.
 

 Routine SETGRP: Setting up the symmetry group for a 
 simple monoclinic supercell.


 Subroutine GETGRP returns: Found  1 space group operations
 (whereof  1 operations were pure point group operations)
 out of a pool of  4 trial point group operations.


The dynamic configuration has the point symmetry C_1 .


Analysis of structural, dynamic, and magnetic symmetry:
=====================================================================
 Subroutine PRICEL returns:
 Original cell was already a primitive cell.
 

 Routine SETGRP: Setting up the symmetry group for a 
 simple monoclinic supercell.


 Subroutine GETGRP returns: Found  1 space group operations
 (whereof  1 operations were pure point group operations)
 out of a pool of  4 trial point group operations.


The magnetic configuration has the point symmetry C_1 .


 Subroutine INISYM returns: Found  1 space group operations
 (whereof  1 operations are pure point group operations),
 and found     1 'primitive' translations

 
 
 KPOINTS: KPOINTS created by Atomic Simulation Env

Automatic generation of k-mesh.
Space group operators:
 irot       det(A)        alpha          n_x          n_y          n_z        tau_x        tau_y        tau_z
    1     1.000000     0.000000     1.000000     0.000000     0.000000     0.000000     0.000000     0.000000
 
 Subroutine IBZKPT returns following result:
 ===========================================
 
 Found     26 irreducible k-points:
 
 Following reciprocal coordinates:
            Coordinates               Weight
  0.000000  0.000000  0.000000      1.000000
  0.250000  0.000000  0.000000      2.000000
  0.500000  0.000000  0.000000      1.000000
 -0.000000  0.250000 -0.000000      2.000000
  0.250000  0.250000 -0.000000      2.000000
  0.500000  0.250000  0.000000      2.000000
 -0.250000  0.250000  0.000000      2.000000
 -0.000000  0.500000 -0.000000      1.000000
  0.250000  0.500000  0.000000      2.000000
  0.500000  0.500000 -0.000000      1.000000
  0.000000  0.000000  0.333333      2.000000
  0.250000 -0.000000  0.333333      2.000000
  0.500000  0.000000  0.333333      2.000000
 -0.250000 -0.000000  0.333333      2.000000
 -0.000000  0.250000  0.333333      2.000000
  0.250000  0.250000  0.333333      2.000000
  0.500000  0.250000  0.333333      2.000000
 -0.250000  0.250000  0.333333      2.000000
 -0.000000  0.500000  0.333333      2.000000
  0.250000  0.500000  0.333333      2.000000
  0.500000  0.500000  0.333333      2.000000
 -0.250000  0.500000  0.333333      2.000000
  0.000000 -0.250000  0.333333      2.000000
  0.250000 -0.250000  0.333333      2.000000
  0.500000 -0.250000  0.333333      2.000000
 -0.250000 -0.250000  0.333333      2.000000
 
 Following cartesian coordinates:
            Coordinates               Weight
  0.000000  0.000000  0.000000      1.000000
  0.050468  0.000214 -0.000003      2.000000
  0.100937  0.000428 -0.000007      1.000000
  0.000106  0.022961 -0.000008      2.000000
  0.050575  0.023175 -0.000012      2.000000
  0.101043  0.023389 -0.000015      2.000000
 -0.050362  0.022747 -0.000005      2.000000
  0.000212  0.045923 -0.000017      1.000000
  0.050681  0.046137 -0.000020      2.000000
  0.101149  0.046351 -0.000024      1.000000
  0.000007  0.000018  0.053292      2.000000
  0.050476  0.000232  0.053288      2.000000
  0.100944  0.000446  0.053285      2.000000
 -0.050461 -0.000196  0.053295      2.000000
  0.000113  0.022980  0.053284      2.000000
  0.050582  0.023194  0.053280      2.000000
  0.101050  0.023408  0.053277      2.000000
 -0.050355  0.022766  0.053287      2.000000
  0.000220  0.045941  0.053275      2.000000
  0.050688  0.046155  0.053272      2.000000
  0.101156  0.046369  0.053268      2.000000
 -0.050249  0.045727  0.053279      2.000000
 -0.000099 -0.022943  0.053300      2.000000
  0.050369 -0.022729  0.053297      2.000000
  0.100838 -0.022515  0.053293      2.000000
 -0.050567 -0.023157  0.053304      2.000000
 


--------------------------------------------------------------------------------------------------------




 Dimension of arrays:
   k-points           NKPTS =     26   k-points in BZ     NKDIM =     26   number of bands    NBANDS=    104
   number of dos      NEDOS =    301   number of ions     NIONS =     33
   non local maximal  LDIM  =      6   non local SUM 2l+1 LMDIM =     18
   total plane-waves  NPLWV =  84000
   max r-space proj   IRMAX =   4011   max aug-charges    IRDMAX=  15298
   dimension x,y,z NGX =    30 NGY =   70 NGZ =   40
   dimension x,y,z NGXF=    60 NGYF=  140 NGZF=   80
   support grid    NGXF=    60 NGYF=  140 NGZF=   80
   ions per type =              13   4  16
 NGX,Y,Z   is equivalent  to a cutoff of  10.07, 10.69, 10.63 a.u.
 NGXF,Y,Z  is equivalent  to a cutoff of  20.14, 21.38, 21.26 a.u.


 I would recommend the setting:
   dimension x,y,z NGX =    30 NGY =   65 NGZ =   37
 SYSTEM =  unknown system                          
 POSCAR =  Li  V  O                                

 Startparameter for this run:
   NWRITE =      2    write-flag & timer
   PREC   = normal    normal or accurate (medium, high low for compatibility)
   ISTART =      0    job   : 0-new  1-cont  2-samecut
   ICHARG =      2    charge: 1-file 2-atom 10-const
   ISPIN  =      2    spin polarized calculation?
   LNONCOLLINEAR =      F non collinear calculations
   LSORBIT =      F    spin-orbit coupling
   INIWAV =      1    electr: 0-lowe 1-rand  2-diag
   LASPH  =      F    aspherical Exc in radial PAW
   METAGGA=      F    non-selfconsistent MetaGGA calc.

 Electronic Relaxation 1
   ENCUT  =  600.0 eV  44.10 Ry    6.64 a.u.   9.89 21.75 12.49*2*pi/ulx,y,z
   ENINI  =  600.0     initial cutoff
   ENAUG  =  605.4 eV  augmentation charge cutoff
   NELM   =    500;   NELMIN=  2; NELMDL=  0     # of ELM steps 
   EDIFF  = 0.1E-05   stopping-criterion for ELM
   LREAL  =      T    real-space projection
   NLSPLINE    = F    spline interpolate recip. space projectors
   LCOMPAT=      F    compatible to vasp.4.4
   GGA_COMPAT  = T    GGA compatible to vasp.4.4-vasp.4.6
   LMAXPAW     = -100 max onsite density
   LMAXMIX     =    4 max onsite mixed and CHGCAR
   VOSKOWN=      0    Vosko Wilk Nusair interpolation
   ROPT   =   -0.00050  -0.00050  -0.00050
 Ionic relaxation
   EDIFFG = -.1E-01   stopping-criterion for IOM
   NSW    =    500    number of steps for IOM
   NBLOCK =      1;   KBLOCK =    500    inner block; outer block 
   IBRION =      2    ionic relax: 0-MD 1-quasi-New 2-CG
   NFREE  =      1    steps in history (QN), initial steepest desc. (CG)
   ISIF   =      3    stress and relaxation
   IWAVPR =     11    prediction:  0-non 1-charg 2-wave 3-comb
   ISYM   =      2    0-nonsym 1-usesym 2-fastsym
   LCORR  =      T    Harris-Foulkes like correction to forces

   POTIM  = 0.5000    time-step for ionic-motion
   TEIN   =    0.0    initial temperature
   TEBEG  =    0.0;   TEEND  =   0.0 temperature during run
   SMASS  =  -3.00    Nose mass-parameter (am)
   estimated Nose-frequenzy (Omega)   =  0.10E-29 period in steps =****** mass=  -0.561E-27a.u.
   SCALEE = 1.0000    scale energy and forces
   NPACO  =    256;   APACO  = 16.0  distance and # of slots for P.C.
   PSTRESS=    0.0 pullay stress

  Mass of Ions in am
   POMASS =   7.01 50.94 16.00
  Ionic Valenz
   ZVAL   =   1.00  5.00  6.00
  Atomic Wigner-Seitz radii
   RWIGS  =  -1.00 -1.00 -1.00
  virtual crystal weights 
   VCA    =   1.00  1.00  1.00
   NELECT =     129.0000    total number of electrons
   NUPDOWN=      -1.0000    fix difference up-down

 DOS related values:
   EMIN   =  10.00;   EMAX   =-10.00  energy-range for DOS
   EFERMI =   0.00
   ISMEAR =     0;   SIGMA  =   0.03  broadening in eV -4-tet -1-fermi 0-gaus

 Electronic relaxation 2 (details)
   IALGO  =     48    algorithm
   LDIAG  =      T    sub-space diagonalisation (order eigenvalues)
   LSUBROT=      F    optimize rotation matrix (better conditioning)
   TURBO    =      0    0=normal 1=particle mesh
   IRESTART =      0    0=no restart 2=restart with 2 vectors
   NREBOOT  =      0    no. of reboots
   NMIN     =      0    reboot dimension
   EREF     =   0.00    reference energy to select bands
   IMIX   =      4    mixing-type and parameters
     AMIX     =   0.40;   BMIX     =  1.00
     AMIX_MAG =   1.60;   BMIX_MAG =  1.00
     AMIN     =   0.10
     WC   =   100.;   INIMIX=   1;  MIXPRE=   1;  MAXMIX= -45

 Intra band minimization:
   WEIMIN = 0.0010     energy-eigenvalue tresh-hold
   EBREAK =  0.24E-08  absolut break condition
   DEPER  =   0.30     relativ break condition  

   TIME   =   0.40     timestep for ELM

  volume/ion in A,a.u.               =      10.22        68.99
  Fermi-wavevector in a.u.,A,eV,Ry     =   1.188252  2.245471 19.210645  1.411943
  Thomas-Fermi vector in A             =   2.324385
 
 Write flags
   LWAVE  =      F    write WAVECAR
   LCHARG =      F    write CHGCAR
   LVTOT  =      F    write LOCPOT, total local potential
   LVHAR  =      F    write LOCPOT, Hartree potential only
   LELF   =      F    write electronic localiz. function (ELF)
   LORBIT =      0    0 simple, 1 ext, 2 COOP (PROOUT)


 Dipole corrections
   LMONO  =      F    monopole corrections only (constant potential shift)
   LDIPOL =      F    correct potential (dipole corrections)
   IDIPOL =      0    1-x, 2-y, 3-z, 4-all directions 
   EPSILON=  1.0000000 bulk dielectric constant

 LDA+U is selected, type is set to LDAUTYPE =  2
   angular momentum for each species LDAUL =    -1    2   -1
   U (eV)           for each species LDAUU =   0.0  3.0  0.0
   J (eV)           for each species LDAUJ =   0.0  0.0  0.0
 Exchange correlation treatment:
   GGA     =    PE    GGA type
   LEXCH   =     8    internal setting for exchange type
   VOSKOWN=      0    Vosko Wilk Nusair interpolation
   LHFCALC =     F    Hartree Fock is set to
   LHFONE  =     F    Hartree Fock one center treatment
   AEXX    =    0.0000 exact exchange contribution

 Linear response parameters
   LEPSILON=     F    determine dielectric tensor
   LRPA    =     F    only Hartree local field effects (RPA)
   LNABLA  =     F    use nabla operator in PAW spheres
   LVEL    =     F    velocity operator in full k-point grid
   LINTERFAST=   F  fast interpolation
   KINTER  =     0    interpolate to denser k-point grid
   CSHIFT  =0.1000    complex shift for real part using Kramers Kronig
   OMEGAMAX=  -1.0    maximum frequency
   DEG_THRESHOLD= 0.2000000E-02 threshold for treating states as degnerate
   RTIME   =    0.100 relaxation time in fs

 Orbital magnetization related:
   ORBITALMAG=     F  switch on orbital magnetization
   LCHIMAG   =     F  perturbation theory with respect to B field
   DQ        =  0.001000  dq finite difference perturbation B field



--------------------------------------------------------------------------------------------------------


 conjugate gradient relaxation of ions
 charge density and potential will be updated during run
 spin polarized calculation
 RMM-DIIS sequential band-by-band
 perform sub-space diagonalisation
    before iterative eigenvector-optimisation
 modified Broyden-mixing scheme, WC =      100.0
 initial mixing is a Kerker type mixing with AMIX =  0.4000 and BMIX =      1.0000
 Hartree-type preconditioning will be used
 using additional bands           39
 real space projection scheme for non local part
 use partial core corrections
 calculate Harris-corrections to forces 
   (improved forces if not selfconsistent)
 use gradient corrections 
 use of overlap-Matrix (Vanderbilt PP)
 Gauss-broadening in eV      SIGMA  =   0.03


--------------------------------------------------------------------------------------------------------


  energy-cutoff  :      600.00
  volume of cell :      337.36
      direct lattice vectors                 reciprocal lattice vectors
     4.953688938 -0.022915527 -0.000658508     0.201873720  0.000856210 -0.000013687
    -0.046179913 10.888056644 -0.003711141     0.000424869  0.091845545 -0.000033341
     0.000414461  0.002268658  6.254865850     0.000021505  0.000054584  0.159875510

  length of vectors
     4.953741984 10.888155208  6.254866275     0.201875536  0.091846534  0.159875521


 
 k-points in units of 2pi/SCALE and weight: KPOINTS created by Atomic Simulation Env
   0.00000000  0.00000000  0.00000000       0.021
   0.05046843  0.00021405 -0.00000342       0.042
   0.10093686  0.00042810 -0.00000684       0.021
   0.00010622  0.02296139 -0.00000834       0.042
   0.05057465  0.02317544 -0.00001176       0.042
   0.10104308  0.02338949 -0.00001518       0.042
  -0.05036221  0.02274733 -0.00000491       0.042
   0.00021243  0.04592277 -0.00001667       0.021
   0.05068086  0.04613682 -0.00002009       0.042
   0.10114929  0.04635088 -0.00002351       0.021
   0.00000717  0.00001819  0.05329184       0.042
   0.05047560  0.00023225  0.05328841       0.042
   0.10094403  0.00044630  0.05328499       0.042
  -0.05046126 -0.00019586  0.05329526       0.042
   0.00011339  0.02297958  0.05328350       0.042
   0.05058182  0.02319363  0.05328008       0.042
   0.10105025  0.02340769  0.05327666       0.042
  -0.05035504  0.02276553  0.05328692       0.042
   0.00021960  0.04594097  0.05327517       0.042
   0.05068803  0.04615502  0.05327174       0.042
   0.10115646  0.04636907  0.05326832       0.042
  -0.05024883  0.04572691  0.05327859       0.042
  -0.00009905 -0.02294319  0.05330017       0.042
   0.05036938 -0.02272914  0.05329675       0.042
   0.10083781 -0.02251509  0.05329333       0.042
  -0.05056748 -0.02315724  0.05330359       0.042
 
 k-points in reciprocal lattice and weights: KPOINTS created by Atomic Simulation Env
   0.00000000  0.00000000  0.00000000       0.021
   0.25000000  0.00000000  0.00000000       0.042
   0.50000000  0.00000000  0.00000000       0.021
  -0.00000000  0.25000000 -0.00000000       0.042
   0.25000000  0.25000000 -0.00000000       0.042
   0.50000000  0.25000000  0.00000000       0.042
  -0.25000000  0.25000000  0.00000000       0.042
  -0.00000000  0.50000000 -0.00000000       0.021
   0.25000000  0.50000000  0.00000000       0.042
   0.50000000  0.50000000 -0.00000000       0.021
   0.00000000  0.00000000  0.33333333       0.042
   0.25000000 -0.00000000  0.33333333       0.042
   0.50000000  0.00000000  0.33333333       0.042
  -0.25000000 -0.00000000  0.33333333       0.042
  -0.00000000  0.25000000  0.33333333       0.042
   0.25000000  0.25000000  0.33333333       0.042
   0.50000000  0.25000000  0.33333333       0.042
  -0.25000000  0.25000000  0.33333333       0.042
  -0.00000000  0.50000000  0.33333333       0.042
   0.25000000  0.50000000  0.33333333       0.042
   0.50000000  0.50000000  0.33333333       0.042
  -0.25000000  0.50000000  0.33333333       0.042
   0.00000000 -0.25000000  0.33333333       0.042
   0.25000000 -0.25000000  0.33333333       0.042
   0.50000000 -0.25000000  0.33333333       0.042
  -0.25000000 -0.25000000  0.33333333       0.042
 
 position of ions in fractional coordinates (direct lattice) 
   0.01543565  0.32909231  0.25815461
   0.51991639  0.16290502  0.26636187
   0.51971000  0.16291565  0.75321134
   0.01532709  0.32902528  0.76130932
   0.00350781  0.07355287  0.50985531
   0.50317844  0.41053543  0.00976298
   0.01224840  0.84088208  0.23467256
   0.48545908  0.66631852  0.25109659
   0.48556028  0.66632243  0.76841627
   0.01228908  0.84090705  0.78490146
   0.02963863  0.56395142  0.50972886
   0.52947396  0.90841458  0.00978267
   0.82255417  0.74727893  0.50981880
   0.01378970  0.08662788  0.00983575
   0.51387988  0.41483342  0.50979249
   0.98481432  0.58147323  0.00969992
   0.48173461  0.91739096  0.50981661
   0.12287712  0.16163831  0.23930261
   0.66503029  0.08508091  0.00984655
   0.12286303  0.16165270  0.78038489
   0.62268115  0.33971221  0.28242276
   0.62252108  0.33971663  0.73722523
   0.61493671  0.06987943  0.50990747
   0.10453956  0.43224795  0.00973771
   0.16425674  0.40724869  0.50974372
   0.09130962  0.65792215  0.24159923
   0.63659469  0.57858761  0.00979523
   0.09110647  0.65791526  0.77771733
   0.62117024  0.82779559  0.28203900
   0.62122895  0.82779036  0.73761144
   0.61843442  0.56964786  0.50983919
   0.13328315  0.93705642  0.00984151
   0.12117990  0.89525489  0.50979580
 
 position of ions in cartesian coordinates  (Angst):
   0.06137297  3.58340769  1.61349099
   2.56809153  1.76240923  1.66511085
   2.56727043  1.76363419  4.71028903
   0.06104680  3.58382186  4.76065652
   0.01419127  0.80192415  3.18880127
   2.47363503  4.45842454  0.05921122
   0.02194017  9.15582340  1.46471668
   2.37414683  7.24435889  1.56778303
   2.37486236  7.24557280  4.80354811
   0.02236858  9.15734271  4.90632454
   0.12098858  6.14081226  3.18617320
   2.58090286  9.87875842  0.05746938
   4.04037954  8.11872266  3.18553328
   0.06431349  0.94291560  0.06119075
   2.52665541  4.50611049  3.18680574
   4.85161542  6.30856792  0.05786528
   2.34420968  9.97872215  3.18511270
   0.60132975  1.75765422  1.49612497
   3.29042822  0.91114857  0.06083516
   0.60148359  1.75903872  4.88052195
   3.06899790  3.68517741  1.76484570
   3.06839324  3.68626103  4.60957425
   3.04318950  0.74791641  3.18873853
   0.49789931  4.70396664  0.05923510
   0.79508135  4.43153920  3.18675905
   0.42203681  7.16194935  1.50866898
   3.12677700  6.28512903  0.05870143
   0.42125299  7.16309526  4.86201594
   3.03897352  8.99949068  1.76063502
   3.03945340  9.00046594  4.61017945
   3.03743678  6.18934302  3.18645447
   0.61697416 10.19969140  0.05799200
   0.55915604  9.74596564  3.18530213
 


--------------------------------------------------------------------------------------------------------


 k-point  1 :   0.0000 0.0000 0.0000  plane waves:   11247
 k-point  2 :   0.2500 0.0000 0.0000  plane waves:   11263
 k-point  3 :   0.5000 0.0000 0.0000  plane waves:   11284
 k-point  4 :  -0.0000 0.2500-0.0000  plane waves:   11237
 k-point  5 :   0.2500 0.2500-0.0000  plane waves:   11271
 k-point  6 :   0.5000 0.2500 0.0000  plane waves:   11303
 k-point  7 :  -0.2500 0.2500 0.0000  plane waves:   11255
 k-point  8 :  -0.0000 0.5000-0.0000  plane waves:   11268
 k-point  9 :   0.2500 0.5000 0.0000  plane waves:   11270
 k-point 10 :   0.5000 0.5000-0.0000  plane waves:   11316
 k-point 11 :   0.0000 0.0000 0.3333  plane waves:   11270
 k-point 12 :   0.2500-0.0000 0.3333  plane waves:   11259
 k-point 13 :   0.5000 0.0000 0.3333  plane waves:   11280
 k-point 14 :  -0.2500-0.0000 0.3333  plane waves:   11260
 k-point 15 :  -0.0000 0.2500 0.3333  plane waves:   11245
 k-point 16 :   0.2500 0.2500 0.3333  plane waves:   11257
 k-point 17 :   0.5000 0.2500 0.3333  plane waves:   11265
 k-point 18 :  -0.2500 0.2500 0.3333  plane waves:   11252
 k-point 19 :  -0.0000 0.5000 0.3333  plane waves:   11244
 k-point 20 :   0.2500 0.5000 0.3333  plane waves:   11260
 k-point 21 :   0.5000 0.5000 0.3333  plane waves:   11251
 k-point 22 :  -0.2500 0.5000 0.3333  plane waves:   11260
 k-point 23 :   0.0000-0.2500 0.3333  plane waves:   11245
 k-point 24 :   0.2500-0.2500 0.3333  plane waves:   11252
 k-point 25 :   0.5000-0.2500 0.3333  plane waves:   11265
 k-point 26 :  -0.2500-0.2500 0.3333  plane waves:   11257

 maximum and minimum number of plane-waves per node :      1434     1380

 maximum number of plane-waves:     11316
 maximum index in each direction: 
   IXMAX=   10   IYMAX=   21   IZMAX=   12
   IXMIN=  -10   IYMIN=  -22   IZMIN=  -12

 WARNING: aliasing errors must be expected set NGX to  42 to avoid them
 WARNING: aliasing errors must be expected set NGY to  88 to avoid them
 WARNING: aliasing errors must be expected set NGZ to  50 to avoid them
 aliasing errors are usually negligible using standard VASP settings
 and one can safely disregard these warnings

 real space projection operators:
  total allocation   :       4351.86 KBytes
  max/ min on nodes  :        605.95        418.06


 parallel 3D FFT for wavefunctions:
    minimum data exchange during FFTs selected (reduces bandwidth)
 parallel 3D FFT for charge:
    minimum data exchange during FFTs selected (reduces bandwidth)


 total amount of memory used by VASP on root node    51850. kBytes
========================================================================

   base      :      30000. kBytes
   nonlr-proj:       2948. kBytes
   fftplans  :        743. kBytes
   grid      :       1910. kBytes
   one-center:        155. kBytes
   wavefun   :      16094. kBytes
 
     INWAV:  cpu time    0.0000: real time    0.0000
 Broyden mixing: mesh for mixing (old mesh)
   NGX = 19   NGY = 43   NGZ = 25
  (NGX  = 60   NGY  =140   NGZ  = 80)
  gives a total of  20425 points

 initial charge density was supplied:
 charge density of overlapping atoms calculated
 number of electron     129.0000000 magnetization      33.0000000
 keeping initial charge density in first step


--------------------------------------------------------------------------------------------------------


 Maximum index for non-local projection operator          576
 Maximum index for augmentation-charges          753 (set IRDMAX)


--------------------------------------------------------------------------------------------------------


 First call to EWALD:  gamma=   0.255
 Maximum number of real-space cells 4x 2x 3
 Maximum number of reciprocal cells 2x 4x 3

 FEWALD executed in parallel
    FEWALD:  cpu time    0.0016: real time    0.0016


----------------------------------------- Iteration    1(   1)  ---------------------------------------


    POTLOK:  cpu time    0.0164: real time    0.0166
    SETDIJ:  cpu time    0.0052: real time    0.0053
    EDDIAG:  cpu time    0.7496: real time    0.7567
  RMM-DIIS:  cpu time    0.4217: real time    0.4237
    ORTHCH:  cpu time    0.1823: real time    0.1832
       DOS:  cpu time    0.0021: real time    0.0022
    --------------------------------------------
      LOOP:  cpu time    1.3816: real time    1.3926

 eigenvalue-minimisations  :  5408
 total energy-change (2. order) : 0.1716384E+04  (-0.4608657E+04)
 number of electron     129.0000000 magnetization      33.0000000
 augmentation part      129.0000000 magnetization      33.0000000

 Free energy of the ion-electron system (eV)
  ---------------------------------------------------
  alpha Z        PSCENC =       249.53580946
  Ewald energy   TEWEN  =     -5323.71772641
  -Hartree energ DENC   =     -2389.71402702
  -exchange      EXHF   =         0.00000000
  -V(xc)+E(xc)   XCENC  =       208.66809966
  PAW double counting   =      6464.99996438    -6216.90839793
  entropy T*S    EENTRO =        -0.00860783
  eigenvalues    EBANDS =      1053.36464841
  atomic energy  EATOM  =      7670.16376216
  Solvation  Ediel_sol  =         0.00000000
  ---------------------------------------------------
  free energy    TOTEN  =      1716.38352488 eV

  energy without entropy =     1716.39213271  energy(sigma->0) =     1716.38782879


--------------------------------------------------------------------------------------------------------




----------------------------------------- Iteration    1(   2)  ---------------------------------------


    EDDIAG:  cpu time    0.7252: real time    0.7296
  RMM-DIIS:  cpu time    0.4225: real time    0.4244
    ORTHCH:  cpu time    0.1825: real time    0.1833
       DOS:  cpu time    0.0022: real time    0.0023
    --------------------------------------------
      LOOP:  cpu time    1.3337: real time    1.3529

 eigenvalue-minimisations  :  5408
 total energy-change (2. order) :-0.1212696E+04  (-0.1148390E+04)
 number of electron     129.0000000 magnetization      33.0000000
 augmentation part      129.0000000 magnetization      33.0000000

 Free energy of the ion-electron system (eV)
  ---------------------------------------------------
  alpha Z        PSCENC =       249.53580946
  Ewald energy   TEWEN  =     -5323.71772641
  -Hartree energ DENC   =     -2389.71402702
  -exchange      EXHF   =         0.00000000
  -V(xc)+E(xc)   XCENC  =       208.66809966
  PAW double counting   =      6464.99996438    -6216.90839793
  entropy T*S    EENTRO =        -0.00480880
  eigenvalues    EBANDS =      -159.33520732
  atomic energy  EATOM  =      7670.16376216
  Solvation  Ediel_sol  =         0.00000000
  ---------------------------------------------------
  free energy    TOTEN  =       503.68746819 eV

  energy without entropy =      503.69227698  energy(sigma->0) =      503.68987258


--------------------------------------------------------------------------------------------------------




----------------------------------------- Iteration    1(   3)  ---------------------------------------


    EDDIAG:  cpu time    0.7214: real time    0.7259
  RMM-DIIS:  cpu time    0.4186: real time    0.4206
    ORTHCH:  cpu time    0.1840: real time    0.1849
       DOS:  cpu time    0.0022: real time    0.0022
    --------------------------------------------
      LOOP:  cpu time    1.3273: real time    1.3473

 eigenvalue-minimisations  :  5408
 total energy-change (2. order) :-0.3752505E+03  (-0.3341198E+03)
 number of electron     129.0000000 magnetization      33.0000000
 augmentation part      129.0000000 magnetization      33.0000000

 Free energy of the ion-electron system (eV)
  ---------------------------------------------------
  alpha Z        PSCENC =       249.53580946
  Ewald energy   TEWEN  =     -5323.71772641
  -Hartree energ DENC   =     -2389.71402702
  -exchange      EXHF   =         0.00000000
  -V(xc)+E(xc)   XCENC  =       208.66809966
  PAW double counting   =      6464.99996438    -6216.90839793
  entropy T*S    EENTRO =        -0.00732581
  eigenvalues    EBANDS =      -534.58322951
  atomic energy  EATOM  =      7670.16376216
  Solvation  Ediel_sol  =         0.00000000
  ---------------------------------------------------
  free energy    TOTEN  =       128.43692899 eV

  energy without entropy =      128.44425480  energy(sigma->0) =      128.44059189


--------------------------------------------------------------------------------------------------------




----------------------------------------- Iteration    1(   4)  ---------------------------------------


    EDDIAG:  cpu time    0.7272: real time    0.7317
  RMM-DIIS:  cpu time    0.4174: real time    0.4194
    ORTHCH:  cpu time    0.1815: real time    0.1824
       DOS:  cpu time    0.0021: real time    0.0022
    --------------------------------------------
      LOOP:  cpu time    1.3294: real time    1.3492

 eigenvalue-minimisations  :  5408
 total energy-change (2. order) :-0.1865792E+03  (-0.1110262E+03)
 number of electron     129.0000000 magnetization      33.0000000
 augmentation part      129.0000000 magnetization      33.0000000

 Free energy of the ion-electron system (eV)
  ---------------------------------------------------
  alpha Z        PSCENC =       249.53580946
  Ewald energy   TEWEN  =     -5323.71772641
  -Hartree energ DENC   =     -2389.71402702
  -exchange      EXHF   =         0.00000000
  -V(xc)+E(xc)   XCENC  =       208.66809966
  PAW double counting   =      6464.99996438    -6216.90839793
  entropy T*S    EENTRO =        -0.00390264
  eigenvalues    EBANDS =      -721.16583551
  atomic energy  EATOM  =      7670.16376216
  Solvation  Ediel_sol  =         0.00000000
  ---------------------------------------------------
  free energy    TOTEN  =       -58.14225384 eV

  energy without entropy =      -58.13835120  energy(sigma->0) =      -58.14030252


--------------------------------------------------------------------------------------------------------




----------------------------------------- Iteration    1(   5)  ---------------------------------------


    EDDIAG:  cpu time    0.7385: real time    0.7430
  RMM-DIIS:  cpu time    0.4175: real time    0.4196
    ORTHCH:  cpu time    0.1819: real time    0.1828
       DOS:  cpu time    0.0020: real time    0.0020
    --------------------------------------------
      LOOP:  cpu time    1.3412: real time    1.3601

 eigenvalue-minimisations  :  5408
 total energy-change (2. order) :-0.9921175E+02  (-0.7089294E+02)
 number of electron     129.0000000 magnetization      33.0000000
 augmentation part      129.0000000 magnetization      33.0000000

 Free energy of the ion-electron system (eV)
  ---------------------------------------------------
  alpha Z        PSCENC =       249.53580946
  Ewald energy   TEWEN  =     -5323.71772641
  -Hartree energ DENC   =     -2389.71402702
  -exchange      EXHF   =         0.00000000
  -V(xc)+E(xc)   XCENC  =       208.66809966
  PAW double counting   =      6464.99996438    -6216.90839793
  entropy T*S    EENTRO =        -0.00199703
  eigenvalues    EBANDS =      -820.37949042
  atomic energy  EATOM  =      7670.16376216
  Solvation  Ediel_sol  =         0.00000000
  ---------------------------------------------------
  free energy    TOTEN  =      -157.35400315 eV

  energy without entropy =     -157.35200611  energy(sigma->0) =     -157.35300463


--------------------------------------------------------------------------------------------------------




----------------------------------------- Iteration    1(   6)  ---------------------------------------


    EDDIAG:  cpu time    0.7207: real time    0.7255
  RMM-DIIS:  cpu time    0.4201: real time    0.4223
    ORTHCH:  cpu time    0.1823: real time    0.1832
       DOS:  cpu time    0.0021: real time    0.0021
    --------------------------------------------
      LOOP:  cpu time    1.3265: real time    1.3458

 eigenvalue-minimisations  :  5408
 total energy-change (2. order) :-0.4470365E+02  (-0.2940855E+02)
 number of electron     129.0000000 magnetization      33.0000000
 augmentation part      129.0000000 magnetization      33.0000000

 Free energy of the ion-electron system (eV)
  ---------------------------------------------------
  alpha Z        PSCENC =       249.53580946
  Ewald energy   TEWEN  =     -5323.71772641
  -Hartree energ DENC   =     -2389.71402702
  -exchange      EXHF   =         0.00000000
  -V(xc)+E(xc)   XCENC  =       208.66809966
  PAW double counting   =      6464.99996438    -6216.90839793
  entropy T*S    EENTRO =        -0.00161051
  eigenvalues    EBANDS =      -865.08352781
  atomic energy  EATOM  =      7670.16376216
  Solvation  Ediel_sol  =         0.00000000
  ---------------------------------------------------
  free energy    TOTEN  =      -202.05765401 eV

  energy without entropy =     -202.05604350  energy(sigma->0) =     -202.05684876


--------------------------------------------------------------------------------------------------------




----------------------------------------- Iteration    1(   7)  ---------------------------------------


    EDDIAG:  cpu time    0.7263: real time    0.7308
  RMM-DIIS:  cpu time    0.4189: real time    0.4208
    ORTHCH:  cpu time    0.1829: real time    0.1838
       DOS:  cpu time    0.0022: real time    0.0022
    --------------------------------------------
      LOOP:  cpu time    1.3316: real time    1.3513

 eigenvalue-minimisations  :  5408
 total energy-change (2. order) :-0.2475628E+02  (-0.1817269E+02)
 number of electron     129.0000000 magnetization      33.0000000
 augmentation part      129.0000000 magnetization      33.0000000

 Free energy of the ion-electron system (eV)
  ---------------------------------------------------
  alpha Z        PSCENC =       249.53580946
  Ewald energy   TEWEN  =     -5323.71772641
  -Hartree energ DENC   =     -2389.71402702
  -exchange      EXHF   =         0.00000000
  -V(xc)+E(xc)   XCENC  =       208.66809966
  PAW double counting   =      6464.99996438    -6216.90839793
  entropy T*S    EENTRO =        -0.00206064
  eigenvalues    EBANDS =      -889.83935731
  atomic energy  EATOM  =      7670.16376216
  Solvation  Ediel_sol  =         0.00000000
  ---------------------------------------------------
  free energy    TOTEN  =      -226.81393364 eV

  energy without entropy =     -226.81187300  energy(sigma->0) =     -226.81290332


--------------------------------------------------------------------------------------------------------




----------------------------------------- Iteration    1(   8)  ---------------------------------------


    EDDIAG:  cpu time    0.7172: real time    0.7215
  RMM-DIIS:  cpu time    0.4174: real time    0.4195
    ORTHCH:  cpu time    0.1816: real time    0.1826
       DOS:  cpu time    0.0019: real time    0.0019
    --------------------------------------------
      LOOP:  cpu time    1.3191: real time    1.3388

 eigenvalue-minimisations  :  5408
 total energy-change (2. order) :-0.1138653E+02  (-0.7986378E+01)
 number of electron     129.0000000 magnetization      33.0000000
 augmentation part      129.0000000 magnetization      33.0000000

 Free energy of the ion-electron system (eV)
  ---------------------------------------------------
  alpha Z        PSCENC =       249.53580946
  Ewald energy   TEWEN  =     -5323.71772641
  -Hartree energ DENC   =     -2389.71402702
  -exchange      EXHF   =         0.00000000
  -V(xc)+E(xc)   XCENC  =       208.66809966
  PAW double counting   =      6464.99996438    -6216.90839793
  entropy T*S    EENTRO =        -0.00188527
  eigenvalues    EBANDS =      -901.22606744
  atomic energy  EATOM  =      7670.16376216
  Solvation  Ediel_sol  =         0.00000000
  ---------------------------------------------------
  free energy    TOTEN  =      -238.20046841 eV

  energy without entropy =     -238.19858314  energy(sigma->0) =     -238.19952577


--------------------------------------------------------------------------------------------------------




----------------------------------------- Iteration    1(   9)  ---------------------------------------


    EDDIAG:  cpu time    0.7329: real time    0.7376
  RMM-DIIS:  cpu time    0.9874: real time    0.9932
    ORTHCH:  cpu time    0.1833: real time    0.1844
       DOS:  cpu time    0.0020: real time    0.0020
    --------------------------------------------
      LOOP:  cpu time    1.9069: real time    1.9301

 eigenvalue-minimisations  : 14204
 total energy-change (2. order) :-0.1351322E+02  (-0.1196031E+02)
 number of electron     129.0000000 magnetization      33.0000000
 augmentation part      129.0000000 magnetization      33.0000000

 Free energy of the ion-electron system (eV)
  ---------------------------------------------------
  alpha Z        PSCENC =       249.53580946
  Ewald energy   TEWEN  =     -5323.71772641
  -Hartree energ DENC   =     -2389.71402702
  -exchange      EXHF   =         0.00000000
  -V(xc)+E(xc)   XCENC  =       208.66809966
  PAW double counting   =      6464.99996438    -6216.90839793
  entropy T*S    EENTRO =        -0.00101726
  eigenvalues    EBANDS =      -914.74015572
  atomic energy  EATOM  =      7670.16376216
  Solvation  Ediel_sol  =         0.00000000
  ---------------------------------------------------
  free energy    TOTEN  =      -251.71368867 eV

  energy without entropy =     -251.71267141  energy(sigma->0) =     -251.71318004


--------------------------------------------------------------------------------------------------------




----------------------------------------- Iteration    1(  10)  ---------------------------------------


    EDDIAG:  cpu time    0.7182: real time    0.7237
  RMM-DIIS:  cpu time    0.9800: real time    0.9852
    ORTHCH:  cpu time    0.1811: real time    0.1821
       DOS:  cpu time    0.0021: real time    0.0021
    --------------------------------------------
      LOOP:  cpu time    1.8825: real time    1.9060

 eigenvalue-minimisations  : 14191
 total energy-change (2. order) :-0.3045926E+00  (-0.2400450E+00)
 number of electron     129.0000000 magnetization      33.0000000
 augmentation part      129.0000000 magnetization      33.0000000

 Free energy of the ion-electron system (eV)
  ---------------------------------------------------
  alpha Z        PSCENC =       249.53580946
  Ewald energy   TEWEN  =     -5323.71772641
  -Hartree energ DENC   =     -2389.71402702
  -exchange      EXHF   =         0.00000000
  -V(xc)+E(xc)   XCENC  =       208.66809966
  PAW double counting   =      6464.99996438    -6216.90839793
  entropy T*S    EENTRO =        -0.00089949
  eigenvalues    EBANDS =      -915.04486608
  atomic energy  EATOM  =      7670.16376216
  Solvation  Ediel_sol  =         0.00000000
  ---------------------------------------------------
  free energy    TOTEN  =      -252.01828127 eV

  energy without entropy =     -252.01738178  energy(sigma->0) =     -252.01783152


--------------------------------------------------------------------------------------------------------




----------------------------------------- Iteration    1(  11)  ---------------------------------------


    EDDIAG:  cpu time    0.7190: real time    0.7230
  RMM-DIIS:  cpu time    0.9716: real time    0.9763
    ORTHCH:  cpu time    0.1820: real time    0.1828
       DOS:  cpu time    0.0020: real time    0.0020
    --------------------------------------------
      LOOP:  cpu time    1.8759: real time    1.8977

 eigenvalue-minimisations  : 14131
 total energy-change (2. order) :-0.2089528E-01  (-0.1273231E-01)
 number of electron     129.0000000 magnetization      33.0000000
 augmentation part      129.0000000 magnetization      33.0000000

 Free energy of the ion-electron system (eV)
  ---------------------------------------------------
  alpha Z        PSCENC =       249.53580946
  Ewald energy   TEWEN  =     -5323.71772641
  -Hartree energ DENC   =     -2389.71402702
  -exchange      EXHF   =         0.00000000
  -V(xc)+E(xc)   XCENC  =       208.66809966
  PAW double counting   =      6464.99996438    -6216.90839793
  entropy T*S    EENTRO =        -0.00148269
  eigenvalues    EBANDS =      -915.06517817
  atomic energy  EATOM  =      7670.16376216
  Solvation  Ediel_sol  =         0.00000000
  ---------------------------------------------------
  free energy    TOTEN  =      -252.03917655 eV

  energy without entropy =     -252.03769386  energy(sigma->0) =     -252.03843521


--------------------------------------------------------------------------------------------------------




----------------------------------------- Iteration    1(  12)  ---------------------------------------


    EDDIAG:  cpu time    0.7348: real time    0.7396
  RMM-DIIS:  cpu time    0.8788: real time    0.8832
    ORTHCH:  cpu time    0.1816: real time    0.1826
       DOS:  cpu time    0.0021: real time    0.0021
    CHARGE:  cpu time    0.0561: real time    0.0564
    MIXING:  cpu time    0.0006: real time    0.0007
    --------------------------------------------
      LOOP:  cpu time    1.8553: real time    1.8777

 eigenvalue-minimisations  : 12891
 total energy-change (2. order) :-0.3255305E-02  (-0.2731520E-02)
 number of electron     129.0000023 magnetization      20.2086955
 augmentation part       14.7493553 magnetization      19.2732221

 Broyden mixing:
  rms(total) = 0.95110E+01    rms(broyden)= 0.95108E+01
  rms(prec ) = 0.10464E+02
  weight for this iteration     100.00

 Free energy of the ion-electron system (eV)
  ---------------------------------------------------
  alpha Z        PSCENC =       249.53580946
  Ewald energy   TEWEN  =     -5323.71772641
  -Hartree energ DENC   =     -2389.71402702
  -exchange      EXHF   =         0.00000000
  -V(xc)+E(xc)   XCENC  =       208.66809966
  PAW double counting   =      6464.99996438    -6216.90839793
  entropy T*S    EENTRO =        -0.00157297
  eigenvalues    EBANDS =      -915.06834319
  atomic energy  EATOM  =      7670.16376216
  Solvation  Ediel_sol  =         0.00000000
  ---------------------------------------------------
  free energy    TOTEN  =      -252.04243185 eV

  energy without entropy =     -252.04085888  energy(sigma->0) =     -252.04164537


--------------------------------------------------------------------------------------------------------




----------------------------------------- Iteration    1(  13)  ---------------------------------------


    POTLOK:  cpu time    0.0125: real time    0.0126
    SETDIJ:  cpu time    0.0046: real time    0.0047
    EDDIAG:  cpu time    0.7220: real time    0.7259
  RMM-DIIS:  cpu time    0.8547: real time    0.8587
    ORTHCH:  cpu time    0.1830: real time    0.1838
       DOS:  cpu time    0.0022: real time    0.0022
    CHARGE:  cpu time    0.0594: real time    0.0596
    MIXING:  cpu time    0.0005: real time    0.0005
    --------------------------------------------
      LOOP:  cpu time    1.8403: real time    1.8613

 eigenvalue-minimisations  : 12143
 total energy-change (2. order) : 0.4575151E+02  (-0.3838540E+02)
 number of electron     129.0000010 magnetization      15.9082879
 augmentation part       23.4706216 magnetization      13.3820580

 Broyden mixing:
  rms(total) = 0.63480E+01    rms(broyden)= 0.63474E+01
  rms(prec ) = 0.79584E+01
  weight for this iteration     100.00

 eigenvalues of (default mixing * dielectric matrix)
  average eigenvalue GAMMA=   0.6851
  0.6851

 Free energy of the ion-electron system (eV)
  ---------------------------------------------------
  alpha Z        PSCENC =       249.53580946
  Ewald energy   TEWEN  =     -5323.71772641
  -Hartree energ DENC   =     -2678.63827502
  -exchange      EXHF   =         0.00000000
  -V(xc)+E(xc)   XCENC  =       242.31147579
  PAW double counting   =      8269.75373831    -8023.62457114
  entropy T*S    EENTRO =        -0.00931202
  eigenvalues    EBANDS =      -612.06581864
  atomic energy  EATOM  =      7670.16376216
  Solvation  Ediel_sol  =         0.00000000
  ---------------------------------------------------
  free energy    TOTEN  =      -206.29091752 eV

  energy without entropy =     -206.28160550  energy(sigma->0) =     -206.28626151


--------------------------------------------------------------------------------------------------------




----------------------------------------- Iteration    1(  14)  ---------------------------------------


    POTLOK:  cpu time    0.0123: real time    0.0124
    SETDIJ:  cpu time    0.0046: real time    0.0046
    EDDIAG:  cpu time    0.7216: real time    0.7268
  RMM-DIIS:  cpu time    0.9914: real time    0.9972
    ORTHCH:  cpu time    0.1821: real time    0.1831
       DOS:  cpu time    0.0021: real time    0.0021
    CHARGE:  cpu time    0.0564: real time    0.0567
    MIXING:  cpu time    0.0005: real time    0.0005
    --------------------------------------------
      LOOP:  cpu time    1.9727: real time    1.9965

 eigenvalue-minimisations  : 13957
 total energy-change (2. order) :-0.7692159E+01  (-0.6145821E+01)
 number of electron     129.0000019 magnetization       7.6771634
 augmentation part       13.9861806 magnetization       6.3092393

 Broyden mixing:
  rms(total) = 0.43537E+01    rms(broyden)= 0.43535E+01
  rms(prec ) = 0.50443E+01
  weight for this iteration     100.00

 eigenvalues of (default mixing * dielectric matrix)
  average eigenvalue GAMMA=   0.8539
  1.3076  0.4002

 Free energy of the ion-electron system (eV)
  ---------------------------------------------------
  alpha Z        PSCENC =       249.53580946
  Ewald energy   TEWEN  =     -5323.71772641
  -Hartree energ DENC   =     -2608.99038706
  -exchange      EXHF   =         0.00000000
  -V(xc)+E(xc)   XCENC  =       224.70133211
  PAW double counting   =      8639.93983232    -8401.83453311
  entropy T*S    EENTRO =        -0.00234707
  eigenvalues    EBANDS =      -663.77881913
  atomic energy  EATOM  =      7670.16376216
  Solvation  Ediel_sol  =         0.00000000
  ---------------------------------------------------
  free energy    TOTEN  =      -213.98307673 eV

  energy without entropy =     -213.98072966  energy(sigma->0) =     -213.98190320


--------------------------------------------------------------------------------------------------------




----------------------------------------- Iteration    1(  15)  ---------------------------------------


    POTLOK:  cpu time    0.0124: real time    0.0124
    SETDIJ:  cpu time    0.0046: real time    0.0047
    EDDIAG:  cpu time    0.7217: real time    0.7255
  RMM-DIIS:  cpu time    0.8881: real time    0.8922
    ORTHCH:  cpu time    0.1837: real time    0.1845
       DOS:  cpu time    0.0022: real time    0.0022
    CHARGE:  cpu time    0.0576: real time    0.0579
    MIXING:  cpu time    0.0005: real time    0.0005
    --------------------------------------------
      LOOP:  cpu time    1.8723: real time    1.8938

 eigenvalue-minimisations  : 12681
 total energy-change (2. order) : 0.1183602E+02  (-0.9293272E+00)
 number of electron     129.0000019 magnetization       6.3191528
 augmentation part       15.7882583 magnetization       5.7803319

 Broyden mixing:
  rms(total) = 0.17491E+01    rms(broyden)= 0.17491E+01
  rms(prec ) = 0.21336E+01
  weight for this iteration     100.00

 eigenvalues of (default mixing * dielectric matrix)
  average eigenvalue GAMMA=   0.8461
  0.4522  1.2786  0.8073

 Free energy of the ion-electron system (eV)
  ---------------------------------------------------
  alpha Z        PSCENC =       249.53580946
  Ewald energy   TEWEN  =     -5323.71772641
  -Hartree energ DENC   =     -2628.91724344
  -exchange      EXHF   =         0.00000000
  -V(xc)+E(xc)   XCENC  =       224.58318946
  PAW double counting   =      9793.95327479    -9554.63022528
  entropy T*S    EENTRO =        -0.00737994
  eigenvalues    EBANDS =      -633.11051900
  atomic energy  EATOM  =      7670.16376216
  Solvation  Ediel_sol  =         0.00000000
  ---------------------------------------------------
  free energy    TOTEN  =      -202.14705820 eV

  energy without entropy =     -202.13967827  energy(sigma->0) =     -202.14336823


--------------------------------------------------------------------------------------------------------




----------------------------------------- Iteration    1(  16)  ---------------------------------------


    POTLOK:  cpu time    0.0122: real time    0.0123
    SETDIJ:  cpu time    0.0046: real time    0.0046
    EDDIAG:  cpu time    0.7201: real time    0.7240
  RMM-DIIS:  cpu time    0.8795: real time    0.8835
    ORTHCH:  cpu time    0.1833: real time    0.1842
       DOS:  cpu time    0.0023: real time    0.0023
    CHARGE:  cpu time    0.0588: real time    0.0591
    MIXING:  cpu time    0.0005: real time    0.0005
    --------------------------------------------
      LOOP:  cpu time    1.8629: real time    1.8840

 eigenvalue-minimisations  : 12591
 total energy-change (2. order) : 0.1001867E+01  (-0.3625722E+00)
 number of electron     129.0000017 magnetization       5.4311043
 augmentation part       16.0572317 magnetization       4.9762602

 Broyden mixing:
  rms(total) = 0.17979E+01    rms(broyden)= 0.17979E+01
  rms(prec ) = 0.20132E+01
  weight for this iteration     100.00

 eigenvalues of (default mixing * dielectric matrix)
  average eigenvalue GAMMA=   0.7384
  1.1328  1.0404  0.4761  0.3041

 Free energy of the ion-electron system (eV)
  ---------------------------------------------------
  alpha Z        PSCENC =       249.53580946
  Ewald energy   TEWEN  =     -5323.71772641
  -Hartree energ DENC   =     -2628.59043280
  -exchange      EXHF   =         0.00000000
  -V(xc)+E(xc)   XCENC  =       224.46271380
  PAW double counting   =      9877.40973890    -9636.67203725
  entropy T*S    EENTRO =        -0.00355849
  eigenvalues    EBANDS =      -633.73346018
  atomic energy  EATOM  =      7670.16376216
  Solvation  Ediel_sol  =         0.00000000
  ---------------------------------------------------
  free energy    TOTEN  =      -201.14519080 eV

  energy without entropy =     -201.14163231  energy(sigma->0) =     -201.14341156


--------------------------------------------------------------------------------------------------------




----------------------------------------- Iteration    1(  17)  ---------------------------------------


    POTLOK:  cpu time    0.0128: real time    0.0129
    SETDIJ:  cpu time    0.0046: real time    0.0046
    EDDIAG:  cpu time    0.7210: real time    0.7250
  RMM-DIIS:  cpu time    0.9497: real time    0.9540
    ORTHCH:  cpu time    0.1816: real time    0.1825
       DOS:  cpu time    0.0008: real time    0.0008
    CHARGE:  cpu time    0.0559: real time    0.0562
    MIXING:  cpu time    0.0006: real time    0.0006
    --------------------------------------------
      LOOP:  cpu time    1.9284: real time    1.9503

 eigenvalue-minimisations  : 13563
 total energy-change (2. order) : 0.1604664E+00  (-0.9310508E-01)
 number of electron     129.0000018 magnetization       4.5636072
 augmentation part       16.2388776 magnetization       4.1719219

 Broyden mixing:
  rms(total) = 0.96902E+00    rms(broyden)= 0.96901E+00
  rms(prec ) = 0.10878E+01
  weight for this iteration     100.00

 eigenvalues of (default mixing * dielectric matrix)
  average eigenvalue GAMMA=   0.7923
  1.1794  1.1794  0.4390  0.5818  0.5818

 Free energy of the ion-electron system (eV)
  ---------------------------------------------------
  alpha Z        PSCENC =       249.53580946
  Ewald energy   TEWEN  =     -5323.71772641
  -Hartree energ DENC   =     -2629.86537211
  -exchange      EXHF   =         0.00000000
  -V(xc)+E(xc)   XCENC  =       224.56115728
  PAW double counting   =      9960.56800066    -9719.53369468
  entropy T*S    EENTRO =        -0.00000000
  eigenvalues    EBANDS =      -632.69666081
  atomic energy  EATOM  =      7670.16376216
  Solvation  Ediel_sol  =         0.00000000
  ---------------------------------------------------
  free energy    TOTEN  =      -200.98472445 eV

  energy without entropy =     -200.98472445  energy(sigma->0) =     -200.98472445


--------------------------------------------------------------------------------------------------------




----------------------------------------- Iteration    1(  18)  ---------------------------------------


    POTLOK:  cpu time    0.0122: real time    0.0123
    SETDIJ:  cpu time    0.0046: real time    0.0046
    EDDIAG:  cpu time    0.7230: real time    0.7267
  RMM-DIIS:  cpu time    0.8952: real time    0.8995
    ORTHCH:  cpu time    0.1810: real time    0.1818
       DOS:  cpu time    0.0007: real time    0.0007
    CHARGE:  cpu time    0.0559: real time    0.0562
    MIXING:  cpu time    0.0006: real time    0.0006
    --------------------------------------------
      LOOP:  cpu time    1.8748: real time    1.8964

 eigenvalue-minimisations  : 12810
 total energy-change (2. order) :-0.2354301E+00  (-0.4776261E-01)
 number of electron     129.0000018 magnetization       3.7427877
 augmentation part       16.4874255 magnetization       3.3918991

 Broyden mixing:
  rms(total) = 0.65331E+00    rms(broyden)= 0.65330E+00
  rms(prec ) = 0.71809E+00
  weight for this iteration     100.00

 eigenvalues of (default mixing * dielectric matrix)
  average eigenvalue GAMMA=   0.8405
  1.3700  1.3700  0.6289  0.6289  0.6251  0.4199

 Free energy of the ion-electron system (eV)
  ---------------------------------------------------
  alpha Z        PSCENC =       249.53580946
  Ewald energy   TEWEN  =     -5323.71772641
  -Hartree energ DENC   =     -2631.63880502
  -exchange      EXHF   =         0.00000000
  -V(xc)+E(xc)   XCENC  =       224.89804619
  PAW double counting   =      9991.84169030    -9749.79540433
  entropy T*S    EENTRO =        -0.00000000
  eigenvalues    EBANDS =      -632.50752692
  atomic energy  EATOM  =      7670.16376216
  Solvation  Ediel_sol  =         0.00000000
  ---------------------------------------------------
  free energy    TOTEN  =      -201.22015459 eV

  energy without entropy =     -201.22015459  energy(sigma->0) =     -201.22015459


--------------------------------------------------------------------------------------------------------




----------------------------------------- Iteration    1(  19)  ---------------------------------------


    POTLOK:  cpu time    0.0127: real time    0.0128
    SETDIJ:  cpu time    0.0046: real time    0.0046
    EDDIAG:  cpu time    0.7220: real time    0.7261
  RMM-DIIS:  cpu time    0.9253: real time    0.9301
    ORTHCH:  cpu time    0.1816: real time    0.1824
       DOS:  cpu time    0.0007: real time    0.0008
    CHARGE:  cpu time    0.0558: real time    0.0561
    MIXING:  cpu time    0.0007: real time    0.0007
    --------------------------------------------
      LOOP:  cpu time    1.9049: real time    1.9276

 eigenvalue-minimisations  : 13120
 total energy-change (2. order) :-0.8241606E-01  (-0.1976697E-01)
 number of electron     129.0000018 magnetization       2.1105669
 augmentation part       16.6186604 magnetization       1.7743798

 Broyden mixing:
  rms(total) = 0.38440E+00    rms(broyden)= 0.38439E+00
  rms(prec ) = 0.41544E+00
  weight for this iteration     100.00

 eigenvalues of (default mixing * dielectric matrix)
  average eigenvalue GAMMA=   0.9807
  1.8184  1.8184  0.8693  0.8693  0.5311  0.5311  0.4271

 Free energy of the ion-electron system (eV)
  ---------------------------------------------------
  alpha Z        PSCENC =       249.53580946
  Ewald energy   TEWEN  =     -5323.71772641
  -Hartree energ DENC   =     -2631.26146414
  -exchange      EXHF   =         0.00000000
  -V(xc)+E(xc)   XCENC  =       224.89254524
  PAW double counting   =     10014.61655417    -9772.11343959
  entropy T*S    EENTRO =        -0.00000000
  eigenvalues    EBANDS =      -633.41861154
  atomic energy  EATOM  =      7670.16376216
  Solvation  Ediel_sol  =         0.00000000
  ---------------------------------------------------
  free energy    TOTEN  =      -201.30257065 eV

  energy without entropy =     -201.30257065  energy(sigma->0) =     -201.30257065


--------------------------------------------------------------------------------------------------------




----------------------------------------- Iteration    1(  20)  ---------------------------------------


    POTLOK:  cpu time    0.0123: real time    0.0123
    SETDIJ:  cpu time    0.0046: real time    0.0047
    EDDIAG:  cpu time    0.7220: real time    0.7257
  RMM-DIIS:  cpu time    0.8995: real time    0.9040
    ORTHCH:  cpu time    0.1825: real time    0.1833
       DOS:  cpu time    0.0007: real time    0.0007
    CHARGE:  cpu time    0.0561: real time    0.0564
    MIXING:  cpu time    0.0007: real time    0.0007
    --------------------------------------------
      LOOP:  cpu time    1.8800: real time    1.9010

 eigenvalue-minimisations  : 12974
 total energy-change (2. order) :-0.2453651E+00  (-0.2499276E-01)
 number of electron     129.0000019 magnetization       1.1547444
 augmentation part       16.7356789 magnetization       0.8437013

 Broyden mixing:
  rms(total) = 0.19321E+00    rms(broyden)= 0.19320E+00
  rms(prec ) = 0.21669E+00
  weight for this iteration     100.00

 eigenvalues of (default mixing * dielectric matrix)
  average eigenvalue GAMMA=   1.0152
  1.8178  1.8178  1.3771  1.0193  0.5765  0.5765  0.4240  0.5128

 Free energy of the ion-electron system (eV)
  ---------------------------------------------------
  alpha Z        PSCENC =       249.53580946
  Ewald energy   TEWEN  =     -5323.71772641
  -Hartree energ DENC   =     -2631.70939138
  -exchange      EXHF   =         0.00000000
  -V(xc)+E(xc)   XCENC  =       224.98978631
  PAW double counting   =     10074.55873298    -9831.08246288
  entropy T*S    EENTRO =        -0.00000000
  eigenvalues    EBANDS =      -634.28644601
  atomic energy  EATOM  =      7670.16376216
  Solvation  Ediel_sol  =         0.00000000
  ---------------------------------------------------
  free energy    TOTEN  =      -201.54793576 eV

  energy without entropy =     -201.54793576  energy(sigma->0) =     -201.54793576


--------------------------------------------------------------------------------------------------------




----------------------------------------- Iteration    1(  21)  ---------------------------------------


    POTLOK:  cpu time    0.0122: real time    0.0122
    SETDIJ:  cpu time    0.0046: real time    0.0046
    EDDIAG:  cpu time    0.7210: real time    0.7249
  RMM-DIIS:  cpu time    0.9558: real time    0.9602
    ORTHCH:  cpu time    0.1827: real time    0.1835
       DOS:  cpu time    0.0008: real time    0.0008
    CHARGE:  cpu time    0.0561: real time    0.0563
    MIXING:  cpu time    0.0007: real time    0.0007
    --------------------------------------------
      LOOP:  cpu time    1.9354: real time    1.9572

 eigenvalue-minimisations  : 13517
 total energy-change (2. order) :-0.3847498E-01  (-0.1064651E-01)
 number of electron     129.0000018 magnetization       0.9981874
 augmentation part       16.7996519 magnetization       0.7205598

 Broyden mixing:
  rms(total) = 0.12365E+00    rms(broyden)= 0.12364E+00
  rms(prec ) = 0.13887E+00
  weight for this iteration     100.00

 eigenvalues of (default mixing * dielectric matrix)
  average eigenvalue GAMMA=   0.9827
  2.2997  1.4686  1.4686  0.9947  0.6336  0.6336  0.4193  0.4633  0.4633

 Free energy of the ion-electron system (eV)
  ---------------------------------------------------
  alpha Z        PSCENC =       249.53580946
  Ewald energy   TEWEN  =     -5323.71772641
  -Hartree energ DENC   =     -2634.68374530
  -exchange      EXHF   =         0.00000000
  -V(xc)+E(xc)   XCENC  =       225.28141755
  PAW double counting   =     10159.39784694    -9915.66670998
  entropy T*S    EENTRO =        -0.00000000
  eigenvalues    EBANDS =      -631.89706516
  atomic energy  EATOM  =      7670.16376216
  Solvation  Ediel_sol  =         0.00000000
  ---------------------------------------------------
  free energy    TOTEN  =      -201.58641074 eV

  energy without entropy =     -201.58641074  energy(sigma->0) =     -201.58641074


--------------------------------------------------------------------------------------------------------




----------------------------------------- Iteration    1(  22)  ---------------------------------------


    POTLOK:  cpu time    0.0125: real time    0.0126
    SETDIJ:  cpu time    0.0046: real time    0.0046
    EDDIAG:  cpu time    0.7412: real time    0.7453
  RMM-DIIS:  cpu time    0.9694: real time    0.9742
    ORTHCH:  cpu time    0.1821: real time    0.1831
       DOS:  cpu time    0.0009: real time    0.0009
    CHARGE:  cpu time    0.0556: real time    0.0559
    MIXING:  cpu time    0.0007: real time    0.0007
    --------------------------------------------
      LOOP:  cpu time    1.9685: real time    1.9917

 eigenvalue-minimisations  : 13643
 total energy-change (2. order) :-0.1741437E-02  (-0.1218406E-02)
 number of electron     129.0000019 magnetization       0.9730816
 augmentation part       16.7996326 magnetization       0.7047804

 Broyden mixing:
  rms(total) = 0.62509E-01    rms(broyden)= 0.62506E-01
  rms(prec ) = 0.73636E-01
  weight for this iteration     100.00

 eigenvalues of (default mixing * dielectric matrix)
  average eigenvalue GAMMA=   0.9977
  2.4592  1.6116  1.6116  0.9936  0.7144  0.7144  0.5091  0.5091  0.4267  0.4267

 Free energy of the ion-electron system (eV)
  ---------------------------------------------------
  alpha Z        PSCENC =       249.53580946
  Ewald energy   TEWEN  =     -5323.71772641
  -Hartree energ DENC   =     -2635.90019340
  -exchange      EXHF   =         0.00000000
  -V(xc)+E(xc)   XCENC  =       225.35344560
[...]
     66       3.9844      0.00000
     67       4.0057      0.00000
     68       4.0170      0.00000
     69       4.3259      0.00000
     70       4.3800      0.00000
     71       4.6625      0.00000
     72       4.7478      0.00000
     73       4.8407      0.00000
     74       4.8572      0.00000
     75       5.0856      0.00000
     76       5.1621      0.00000
     77       5.2440      0.00000
     78       5.2851      0.00000
     79       5.3806      0.00000
     80       5.5933      0.00000
     81       5.9131      0.00000
     82       6.0916      0.00000
     83       6.3311      0.00000
     84       6.4401      0.00000
     85       8.4855      0.00000
     86       8.5452      0.00000
     87       8.8175      0.00000
     88       9.0349      0.00000
     89       9.3306      0.00000
     90       9.4358      0.00000
     91       9.6897      0.00000
     92       9.9139      0.00000
     93      10.0071      0.00000
     94      10.1485      0.00000
     95      10.4424      0.00000
     96      10.5465      0.00000
     97      10.6373      0.00000
     98      10.8922      0.00000
     99      11.1624      0.00000
    100      11.4237      0.00000
    101      12.0953      0.00000
    102      12.3598      0.00000
    103      12.7040      0.00000
    104      12.8883      0.00000

 k-point    26 :      -0.2500   -0.2500    0.3333
  band No.  band energies     occupation 
      1     -16.1722      1.00000
      2     -16.0502      1.00000
      3     -15.8109      1.00000
      4     -15.7790      1.00000
      5     -15.7453      1.00000
      6     -15.7076      1.00000
      7     -15.6694      1.00000
      8     -15.6150      1.00000
      9     -15.5953      1.00000
     10     -15.4209      1.00000
     11     -15.3620      1.00000
     12     -15.3415      1.00000
     13     -15.0350      1.00000
     14     -14.7101      1.00000
     15     -14.5587      1.00000
     16     -14.4891      1.00000
     17      -3.2431      1.00000
     18      -3.1212      1.00000
     19      -3.0658      1.00000
     20      -3.0201      1.00000
     21      -2.9281      1.00000
     22      -2.7980      1.00000
     23      -2.7267      1.00000
     24      -2.6518      1.00000
     25      -2.5961      1.00000
     26      -2.5623      1.00000
     27      -2.4924      1.00000
     28      -2.4605      1.00000
     29      -2.3989      1.00000
     30      -2.3089      1.00000
     31      -2.1984      1.00000
     32      -2.1089      1.00000
     33      -2.0358      1.00000
     34      -1.9000      1.00000
     35      -1.8197      1.00000
     36      -1.7305      1.00000
     37      -1.6441      1.00000
     38      -1.5692      1.00000
     39      -1.4305      1.00000
     40      -1.3820      1.00000
     41      -1.2816      1.00000
     42      -1.2181      1.00000
     43      -1.1650      1.00000
     44      -1.1164      1.00000
     45      -1.0381      1.00000
     46      -0.9571      1.00000
     47      -0.8241      1.00000
     48      -0.7593      1.00000
     49      -0.7317      1.00000
     50      -0.6450      1.00000
     51      -0.6026      1.00000
     52      -0.5283      1.00000
     53      -0.4657      1.00000
     54      -0.4079      1.00000
     55      -0.3820      1.00000
     56      -0.3361      1.00000
     57      -0.2971      1.00000
     58      -0.1936      1.00000
     59      -0.1006      1.00000
     60      -0.0558      1.00000
     61      -0.0122      1.00000
     62       0.3267      1.00000
     63       0.3812      1.00000
     64       0.4342      1.00000
     65       3.9567      0.00000
     66       4.0026      0.00000
     67       4.0399      0.00000
     68       4.0652      0.00000
     69       4.3707      0.00000
     70       4.4035      0.00000
     71       4.6583      0.00000
     72       4.7821      0.00000
     73       4.8476      0.00000
     74       4.8613      0.00000
     75       4.9035      0.00000
     76       5.0171      0.00000
     77       5.1212      0.00000
     78       5.2110      0.00000
     79       5.3511      0.00000
     80       5.4079      0.00000
     81       5.9089      0.00000
     82       6.1223      0.00000
     83       6.1816      0.00000
     84       6.4787      0.00000
     85       7.6239      0.00000
     86       8.1999      0.00000
     87       8.5494      0.00000
     88       8.9552      0.00000
     89       9.4671      0.00000
     90       9.8592      0.00000
     91       9.9689      0.00000
     92      10.4033      0.00000
     93      10.5162      0.00000
     94      10.6717      0.00000
     95      10.8935      0.00000
     96      11.0022      0.00000
     97      11.1254      0.00000
     98      11.3023      0.00000
     99      11.4399      0.00000
    100      11.7074      0.00000
    101      12.3223      0.00000
    102      12.5246      0.00000
    103      12.7111      0.00000
    104      13.0356      0.00000


--------------------------------------------------------------------------------------------------------


 soft charge-density along one line, spin component           1
         0         1         2         3         4         5         6         7         8         9
 total charge-density along one line
 
 soft charge-density along one line, spin component           2
         0         1         2         3         4         5         6         7         8         9
 total charge-density along one line
 
 pseudopotential strength for first ion, spin component:           1
  1.180   5.289   0.001  -0.001   0.000
  5.289  22.655   0.003  -0.002   0.001
  0.001   0.003  -0.326  -0.000  -0.000
 -0.001  -0.002  -0.000  -0.327   0.000
  0.000   0.001  -0.000   0.000  -0.327
 pseudopotential strength for first ion, spin component:           2
  1.180   5.289   0.001  -0.001   0.000
  5.289  22.655   0.003  -0.002   0.001
  0.001   0.003  -0.326  -0.000  -0.000
 -0.001  -0.002  -0.000  -0.327   0.000
  0.000   0.001  -0.000   0.000  -0.327
 total augmentation occupancy for first ion, spin component:           1
  1.148  -0.031  -0.010   0.010  -0.003
 -0.031   0.001   0.000  -0.000   0.000
 -0.010   0.000   0.122   0.003  -0.005
  0.010  -0.000   0.003   0.101   0.003
 -0.003   0.000  -0.005   0.003   0.100
 total augmentation occupancy for first ion, spin component:           2
  0.000  -0.000  -0.000  -0.000   0.000
 -0.000   0.000   0.000  -0.000  -0.000
 -0.000   0.000   0.000   0.000  -0.000
 -0.000  -0.000   0.000   0.000  -0.000
  0.000  -0.000  -0.000  -0.000  -0.000


------------------------ aborting loop because EDIFF is reached ----------------------------------------


    CHARGE:  cpu time    0.0557: real time    0.0560
    FORLOC:  cpu time    0.0011: real time    0.0011
    FORNL :  cpu time    0.3794: real time    0.3812
    STRESS:  cpu time    1.1475: real time    1.1529
    FORCOR:  cpu time    0.0126: real time    0.0127
    FORHAR:  cpu time    0.0023: real time    0.0023
    MIXING:  cpu time    0.0004: real time    0.0004
    OFIELD:  cpu time    0.0000: real time    0.0000

 ---------------------------------------------------------------------------------------------

         DFTD3 V3.0 Rev 1        
 Edisp (eV)   -6.76434

 E6    (eV) :    -4.1592
 E8    (eV) :    -2.6051
 % E8        : 38.51
    FORVDW:  cpu time    0.1797: real time    0.1808

  FORCE on cell =-STRESS in cart. coord.  units (eV):
  Direction    XX          YY          ZZ          XY          YZ          ZX
  --------------------------------------------------------------------------------------
  Alpha Z   249.56084   249.56084   249.56084
  Ewald   -1687.87450 -1843.83627 -1792.16012    -0.85654     0.19416     0.01093
  Hartree   947.67931   814.15381   875.42406     0.16013     0.08206     0.05411
  E(xc)    -605.21746  -605.88699  -605.53920     0.51887    -0.00028     0.00100
  Local   -1035.83694  -745.77641  -861.27513     3.43205    -0.26562    -0.06796
  n-local  -342.02766  -341.05943  -342.50379     1.80737     0.00074    -0.00580
  augment   178.28845   179.47484   179.50389    -2.45335    -0.00219    -0.00192
  Kinetic  2302.33725  2300.34959  2304.03513    -2.61764    -0.00629     0.00924
  Fock        0.00000     0.00000     0.00000     0.00000     0.00000     0.00000
  vdW        -6.93822    -6.99553    -6.98806    -0.00408     0.00001     0.00002
  -------------------------------------------------------------------------------------
  Total      -0.02893    -0.01555     0.05762    -0.01319     0.00259    -0.00038
  in kB      -0.13740    -0.07388     0.27366    -0.06262     0.01229    -0.00182
  external pressure =        0.02 kB  Pullay stress =        0.00 kB


 VOLUME and BASIS-vectors are now :
 -----------------------------------------------------------------------------
  energy-cutoff  :      600.00
  volume of cell :      337.32
      direct lattice vectors                 reciprocal lattice vectors
     4.953109810 -0.023203602 -0.000693876     0.201897429  0.000868149 -0.000012256
    -0.046813202 10.886858280 -0.003659473     0.000430307  0.091855703 -0.000033771
     0.000369866  0.002298149  6.255661436     0.000022646  0.000053831  0.159855177

  length of vectors
     4.953164208 10.886959542  6.255661869     0.201899296  0.091856717  0.159855188


 FORCES acting on ions
    electron-ion (+dipol)            ewald-force                    non-local-force                 convergence-correction
 -----------------------------------------------------------------------------------------------
   -.229E+00 0.509E+01 0.161E+01   0.199E+00 -.521E+01 -.150E+01   0.321E-01 0.124E+00 -.109E+00   -.285E-04 0.369E-05 0.103E-04
   0.839E-01 -.427E+01 0.413E+00   -.101E+00 0.379E+01 -.721E-01   0.189E-01 0.487E+00 -.340E+00   0.298E-04 0.352E-03 -.911E-05
   0.626E-01 -.428E+01 -.431E+00   -.807E-01 0.379E+01 0.882E-01   0.205E-01 0.487E+00 0.344E+00   0.433E-04 0.384E-03 0.138E-04
   -.222E+00 0.507E+01 -.159E+01   0.194E+00 -.520E+01 0.148E+01   0.319E-01 0.126E+00 0.108E+00   -.205E-04 0.141E-04 -.948E-05
   -.359E+01 -.598E+01 0.797E-02   0.291E+01 0.573E+01 -.752E-02   0.684E+00 0.261E+00 0.560E-03   -.131E-03 0.334E-03 0.161E-05
   0.200E+01 0.107E+02 -.269E-01   -.191E+01 -.103E+02 0.246E-01   -.876E-01 -.453E+00 0.251E-02   -.416E-04 -.111E-04 -.265E-04
   -.137E+01 0.263E+01 0.592E+01   0.122E+01 -.200E+01 -.559E+01   0.138E+00 -.622E+00 -.333E+00   -.688E-04 -.161E-03 -.128E-03
   0.334E+01 -.212E+01 0.207E+00   -.314E+01 0.273E+01 -.305E+00   -.201E+00 -.606E+00 0.987E-01   -.278E-04 -.104E-03 -.164E-03
   0.339E+01 -.212E+01 -.219E+00   -.318E+01 0.273E+01 0.315E+00   -.205E+00 -.606E+00 -.955E-01   -.206E-04 -.159E-03 0.167E-03
   -.138E+01 0.261E+01 -.594E+01   0.124E+01 -.198E+01 0.560E+01   0.137E+00 -.621E+00 0.336E+00   -.867E-04 -.183E-03 0.136E-03
   -.138E+01 -.537E+01 0.292E-01   0.151E+01 0.471E+01 -.265E-01   -.129E+00 0.648E+00 -.208E-02   -.563E-04 -.248E-03 0.395E-04
   -.816E+00 0.383E+01 -.518E-02   0.764E+00 -.407E+01 0.511E-02   0.540E-01 0.246E+00 0.564E-03   0.251E-04 -.441E-04 0.436E-04
   -.877E+01 0.885E+01 0.181E-01   0.756E+01 -.759E+01 -.173E-01   0.120E+01 -.126E+01 0.470E-05   -.133E-03 -.603E-04 -.349E-05
   -.315E+01 -.849E+01 0.190E-01   0.317E+01 0.840E+01 -.193E-01   -.181E-01 0.863E-01 0.196E-04   0.202E-02 0.493E-02 -.847E-04
   -.514E+01 0.911E+01 0.355E-01   0.499E+01 -.923E+01 -.333E-01   0.147E+00 0.120E+00 -.881E-03   0.271E-02 -.947E-02 -.141E-03
   -.122E+02 -.104E+02 0.280E-01   0.120E+02 0.103E+02 -.270E-01   0.202E+00 0.540E-01 0.658E-04   0.347E-02 0.199E-02 -.885E-03
   0.118E+02 -.183E+02 0.464E-01   -.112E+02 0.174E+02 -.437E-01   -.645E+00 0.969E+00 -.246E-02   0.776E-02 -.516E-02 -.128E-02
   -.291E+02 -.527E+02 -.864E+02   0.345E+02 0.599E+02 0.101E+03   -.530E+01 -.712E+01 -.145E+02   -.458E-02 -.595E-03 -.668E-02
   0.924E+02 -.114E+02 -.107E-01   -.110E+03 0.106E+02 0.109E-01   0.176E+02 0.811E+00 0.111E-02   0.315E-03 0.431E-02 -.102E-02
   -.291E+02 -.527E+02 0.864E+02   0.344E+02 0.598E+02 -.101E+03   -.530E+01 -.711E+01 0.145E+02   -.596E-02 0.198E-02 0.610E-02
   -.264E+02 0.742E+02 0.858E+02   0.316E+02 -.823E+02 -.996E+02   -.517E+01 0.814E+01 0.138E+02   -.355E-02 0.173E-02 0.892E-02
   -.265E+02 0.742E+02 -.859E+02   0.316E+02 -.823E+02 0.997E+02   -.516E+01 0.813E+01 -.138E+02   -.347E-02 0.173E-03 -.695E-02
   -.247E+02 -.892E+02 0.412E-01   0.300E+02 0.101E+03 -.411E-01   -.524E+01 -.121E+02 0.128E-02   0.392E-03 0.264E-02 0.194E-03
   -.375E+02 0.112E+03 -.498E-01   0.430E+02 -.127E+03 0.536E-01   -.550E+01 0.150E+02 -.224E-02   0.338E-02 0.129E-02 -.695E-03
   0.877E+02 0.280E+02 -.543E-02   -.104E+03 -.306E+02 0.758E-02   0.163E+02 0.257E+01 -.343E-02   -.265E-02 -.963E-02 0.176E-02
   -.402E+02 -.579E+02 -.706E+02   0.446E+02 0.659E+02 0.832E+02   -.436E+01 -.800E+01 -.126E+02   0.149E-02 -.332E-02 -.119E-01
   0.965E+02 -.121E+02 -.823E-01   -.113E+03 0.116E+02 0.937E-01   0.169E+02 0.491E+00 -.110E-01   -.302E-03 -.299E-02 0.261E-03
   -.402E+02 -.578E+02 0.706E+02   0.446E+02 0.658E+02 -.832E+02   -.436E+01 -.798E+01 0.126E+02   -.353E-03 -.484E-02 0.118E-01
   -.976E+01 0.270E+02 0.806E+02   0.127E+02 -.311E+02 -.910E+02   -.293E+01 0.403E+01 0.104E+02   -.520E-02 0.341E-02 0.592E-02
   -.975E+01 0.270E+02 -.807E+02   0.127E+02 -.310E+02 0.911E+02   -.293E+01 0.403E+01 -.104E+02   -.159E-02 0.190E-02 -.534E-02
   -.136E+02 -.869E+02 0.932E-01   0.173E+02 0.101E+03 -.931E-01   -.372E+01 -.138E+02 -.445E-03   0.261E-02 0.903E-03 0.844E-03
   -.349E+02 0.946E+02 -.127E-01   0.424E+02 -.108E+03 0.159E-01   -.752E+01 0.135E+02 -.261E-02   -.383E-02 -.731E-04 0.574E-03
   0.554E+02 -.384E+01 0.963E-02   -.681E+02 0.301E+01 -.117E-01   0.128E+02 0.835E+00 0.129E-02   -.449E-02 -.831E-02 -.238E-03
 -----------------------------------------------------------------------------------------------
   -.742E+01 -.969E+00 0.385E-01   -.142E-13 0.746E-13 -.238E-15   0.746E+01 0.960E+00 -.222E-01   -.124E-01 -.190E-01 0.121E-02
 
 
 POSITION                                       TOTAL-FORCE (eV/Angst)
 -----------------------------------------------------------------------------------
      0.06113      3.58312      1.61353         0.000853      0.001818     -0.001465
      2.56769      1.76217      1.66563         0.001042      0.000106      0.001146
      2.56686      1.76326      4.71074         0.001213     -0.001097     -0.000549
      0.06086      3.58362      4.76151         0.001590      0.001654      0.001538
      0.01419      0.80203      3.18927         0.001926      0.002521      0.000485
      2.47324      4.45779      0.05917         0.001188      0.000726     -0.000346
      0.02085      9.15463      1.46525        -0.001963      0.000967      0.001009
      2.37321      7.24355      1.56806        -0.001390     -0.000387     -0.000848
      2.37378      7.24482      4.80426        -0.002462      0.000090      0.001354
      0.02121      9.15611      4.90660        -0.002788      0.000556     -0.001169
      0.12093      6.13973      3.18667         0.002119      0.000230      0.000163
      2.58016      9.87731      0.05751         0.000892     -0.000457      0.000006
      4.03890      8.11701      3.18592        -0.004147     -0.007257      0.000184
      0.06452      0.94302      0.06124         0.000233     -0.002263     -0.000874
      2.52643      4.50508      3.18714        -0.004741     -0.001086      0.000678
      4.85091      6.30791      0.05784        -0.003861     -0.003547     -0.000383
      2.34360      9.97713      3.18552         0.008118      0.005400     -0.001615
      0.60130      1.75738      1.49650         0.000220      0.001294     -0.001767
      3.28988      0.91072      0.06094         0.002219      0.001003     -0.000320
      0.60158      1.75863      4.88092         0.000024      0.001474      0.002045
      3.06850      3.68478      1.76475         0.000320     -0.000418      0.001016
      3.06793      3.68592      4.61044         0.000121     -0.000797     -0.001502
      3.04289      0.74779      3.18908         0.000737      0.000413      0.001011
      0.49725      4.70362      0.05927         0.002053     -0.004389      0.000397
      0.79459      4.43160      3.18707         0.001959     -0.004499     -0.000060
      0.42100      7.16073      1.50899         0.003674      0.005067      0.004006
      3.12631      6.28452      0.05866        -0.006272      0.001037      0.000113
      0.42033      7.16199      4.86257         0.003111      0.004276     -0.004043
      3.03834      8.99836      1.76060        -0.000844     -0.001601      0.001945
      3.03848      8.99940      4.61103         0.000788     -0.001314     -0.001136
      3.03646      6.18826      3.18684         0.000852      0.002564     -0.000107
      0.61663     10.19859      0.05797        -0.002203     -0.000562      0.000663
      0.55891      9.74559      3.18580        -0.004578     -0.001522     -0.001575
 -----------------------------------------------------------------------------------
    total drift:                                0.027301     -0.027257      0.017581


--------------------------------------------------------------------------------------------------------



  FREE ENERGIE OF THE ION-ELECTRON SYSTEM (eV)
  ---------------------------------------------------
  free  energy   TOTEN  =      -208.34928223 eV

  energy  without entropy=     -208.34928223  energy(sigma->0) =     -208.34928223
 
 d Force = 0.1046303E-04[ 0.570E-05, 0.152E-04]  d Energy = 0.1785091E-04-0.739E-05
 d Force = 0.4065260E-01[ 0.406E-01, 0.407E-01]  d Ewald  = 0.7712652E-01-0.365E-01


--------------------------------------------------------------------------------------------------------


    POTLOK:  cpu time    0.0191: real time    0.0192


--------------------------------------------------------------------------------------------------------


 stress matrix after NEB project (eV)
     -0.02893     -0.01319     -0.00038
     -0.01319     -0.01555      0.00259
     -0.00038      0.00259      0.05762
  FORCES: max atom, RMS     0.009883    0.004077
  FORCE total and by dimension    0.023421    0.008118
  Stress total and by dimension    0.068991    0.057616
 Conjugate gradient step on ions:
 trial-energy change:   -0.000018  1 .order   -0.000016   -0.000021   -0.000011
  (g-gl).g = 0.879E-04      g.g   = 0.794E-04  gl.gl    = 0.570E-04
 g(Force)  = 0.718E-04   g(Stress)= 0.761E-05 ortho     =-0.848E-05
 gamma     =   1.54176
 trial     =   0.31595
 opt step  =   0.68653  (harmonic =   0.68653) maximal distance =0.00045968
 next E    =  -208.349287   (d E  =  -0.00002)


--------------------------------------------------------------------------------------------------------


  
 reached required accuracy - stopping structural energy minimisation
     LOOP+:  cpu time    6.9822: real time    7.0469
    4ORBIT:  cpu time    0.0000: real time    0.0000

 total amount of memory used by VASP on root node    51850. kBytes
========================================================================

   base      :      30000. kBytes
   nonlr-proj:       2948. kBytes
   fftplans  :        743. kBytes
   grid      :       1910. kBytes
   one-center:        155. kBytes
   wavefun   :      16094. kBytes
 
  
  
 General timing and accounting informations for this job:
 ========================================================
  
                  Total CPU time used (sec):       96.911
                            User time (sec):       94.454
                          System time (sec):        2.457
                         Elapsed time (sec):      100.604
  
                   Maximum memory used (kb):      496540.
                   Average memory used (kb):           0.
  
                          Minor page faults:        87235
                          Major page faults:          136
                 Voluntary context switches:         5969
