 running on   64 total cores
 distrk:  each k-point on   64 cores,    1 groups
 distr:  one band on    8 cores,    8 groups
 using from now: INCAR     
 vasp.5.4.1 05Feb16 (build Apr 23 2022 14:15:44) complex                        
  
 POSCAR found type information on POSCAR  Li V  O 
 POSCAR found :  3 types and      33 ions
 scaLAPACK will be used
 LDA part: xc-table for Pade appr. of Perdew
 POSCAR found type information on POSCAR  Li V  O 
 POSCAR found :  3 types and      33 ions
 POSCAR, INCAR and KPOINTS ok, starting setup
 WARNING: small aliasing (wrap around) errors must be expected
 FFT: planning ...
 WAVECAR not read
 WARNING: random wavefunctions but no delay for mixing, default for NELMDL
 entering main loop
       N       E                     dE             d eps       ncg     rms          rms(c)
RMM:   1     0.171638352488E+04    0.17164E+04   -0.46087E+04  5408   0.117E+03
RMM:   2     0.503687468185E+03   -0.12127E+04   -0.11484E+04  5408   0.294E+02
RMM:   3     0.128436928987E+03   -0.37525E+03   -0.33412E+03  5408   0.166E+02
RMM:   4    -0.581422538430E+02   -0.18658E+03   -0.11103E+03  5408   0.214E+02
RMM:   5    -0.157354003146E+03   -0.99212E+02   -0.70893E+02  5408   0.110E+02
RMM:   6    -0.202057654015E+03   -0.44704E+02   -0.29409E+02  5408   0.927E+01
RMM:   7    -0.226813933641E+03   -0.24756E+02   -0.18173E+02  5408   0.535E+01
RMM:   8    -0.238200468405E+03   -0.11387E+02   -0.79864E+01  5408   0.494E+01
RMM:   9    -0.251713688671E+03   -0.13513E+02   -0.11960E+02 14204   0.265E+01
RMM:  10    -0.252018281267E+03   -0.30459E+00   -0.24005E+00 14191   0.378E+00
RMM:  11    -0.252039176548E+03   -0.20895E-01   -0.12732E-01 14131   0.634E-01
RMM:  12    -0.252042431852E+03   -0.32553E-02   -0.27315E-02 12891   0.136E-01    0.951E+01
RMM:  13    -0.206290917519E+03    0.45752E+02   -0.38385E+02 12143   0.676E+01    0.635E+01
RMM:  14    -0.213983076734E+03   -0.76922E+01   -0.61458E+01 13957   0.240E+01    0.435E+01
RMM:  15    -0.202147058201E+03    0.11836E+02   -0.92933E+00 12681   0.110E+01    0.175E+01
RMM:  16    -0.201145190799E+03    0.10019E+01   -0.36257E+00 12591   0.657E+00    0.180E+01
RMM:  17    -0.200984724446E+03    0.16047E+00   -0.93105E-01 13563   0.287E+00    0.969E+00
RMM:  18    -0.201220154586E+03   -0.23543E+00   -0.47763E-01 12810   0.222E+00    0.653E+00
RMM:  19    -0.201302570650E+03   -0.82416E-01   -0.19767E-01 13120   0.148E+00    0.384E+00
RMM:  20    -0.201547935760E+03   -0.24537E+00   -0.24993E-01 12974   0.172E+00    0.193E+00
RMM:  21    -0.201586410742E+03   -0.38475E-01   -0.10647E-01 13517   0.977E-01    0.124E+00
RMM:  22    -0.201588152179E+03   -0.17414E-02   -0.12184E-02 13643   0.337E-01    0.625E-01
RMM:  23    -0.201587032168E+03    0.11200E-02   -0.37084E-03 12353   0.241E-01    0.319E-01
RMM:  24    -0.201586107950E+03    0.92422E-03   -0.22439E-03 12645   0.166E-01    0.136E-01
RMM:  25    -0.201585934766E+03    0.17318E-03   -0.57307E-04 12965   0.740E-02    0.113E-01
RMM:  26    -0.201585707506E+03    0.22726E-03   -0.39656E-04 13058   0.570E-02    0.104E-01
RMM:  27    -0.201585602826E+03    0.10468E-03   -0.14033E-04 12961   0.333E-02    0.555E-02
RMM:  28    -0.201585576847E+03    0.25980E-04   -0.76031E-05 12874   0.286E-02    0.265E-02
RMM:  29    -0.201585576281E+03    0.56565E-06   -0.21963E-05 11958   0.137E-02    0.198E-02
RMM:  30    -0.201585581073E+03   -0.47921E-05   -0.45109E-06  8917   0.884E-03    0.129E-02
RMM:  31    -0.201585583436E+03   -0.23627E-05   -0.23833E-06  7486   0.619E-03    0.972E-03
RMM:  32    -0.201585584492E+03   -0.10564E-05   -0.12969E-06  6822   0.459E-03    0.782E-03
RMM:  33    -0.201585585649E+03   -0.11561E-05   -0.16225E-06  6983   0.498E-03    0.735E-03
RMM:  34    -0.201585587066E+03   -0.14171E-05   -0.41008E-06  7640   0.771E-03    0.526E-03
RMM:  35    -0.201585587579E+03   -0.51368E-06   -0.31145E-06  7405   0.696E-03
   1 F= -.20834923E+03 E0= -.20834923E+03  d E =-.208349E+03  mag=     0.9999
 curvature:   0.00 expect dE= 0.000E+00 dE for cont linesearch  0.000E+00
 trial: gam= 0.00000 g(F)=  0.484E-04 g(S)=  0.861E-05 ort = 0.000E+00 (trialstep = 0.100E+01)
 search vector abs. value=  0.570E-04
 bond charge predicted
       N       E                     dE             d eps       ncg     rms          rms(c)
RMM:   1    -0.201585088586E+03    0.49848E-03   -0.68759E-03 11681   0.273E-01    0.528E-02
RMM:   2    -0.201585211794E+03   -0.12321E-03   -0.95745E-04 11239   0.189E-01    0.113E-01
RMM:   3    -0.201585180289E+03    0.31506E-04   -0.35646E-05 10841   0.314E-02    0.535E-02
RMM:   4    -0.201585182305E+03   -0.20162E-05   -0.56383E-06  9578   0.968E-03    0.541E-02
RMM:   5    -0.201585179932E+03    0.23731E-05   -0.28633E-06  8169   0.612E-03    0.352E-02
RMM:   6    -0.201585175861E+03    0.40713E-05   -0.62924E-06 10222   0.814E-03    0.816E-03
RMM:   7    -0.201585175307E+03    0.55346E-06   -0.92755E-07  6671   0.488E-03
   2 F= -.20834926E+03 E0= -.20834926E+03  d E =-.343769E-04  mag=     1.0000
 trial-energy change:   -0.000034  1 .order   -0.000034   -0.000057   -0.000011
 step:   1.2310(harm=  1.2310)  dis= 0.00051  next Energy=  -208.349264 (dE=-0.351E-04)
 bond charge predicted
       N       E                     dE             d eps       ncg     rms          rms(c)
RMM:   1    -0.201585068128E+03    0.10773E-03   -0.36891E-04 11484   0.632E-02    0.115E-02
RMM:   2    -0.201585074096E+03   -0.59680E-05   -0.49024E-05 10266   0.434E-02    0.220E-02
RMM:   3    -0.201585073297E+03    0.79986E-06   -0.17235E-06  6877   0.788E-03
   3 F= -.20834926E+03 E0= -.20834926E+03  d E =-.355472E-04  mag=     1.0000
 curvature:  -0.62 expect dE=-0.489E-04 dE for cont linesearch -0.776E-06
 trial: gam= 1.54176 g(F)=  0.718E-04 g(S)=  0.761E-05 ort =-0.848E-05 (trialstep = 0.316E+00)
 search vector abs. value=  0.189E-03
 bond charge predicted
       N       E                     dE             d eps       ncg     rms          rms(c)
RMM:   1    -0.201584921761E+03    0.15234E-03   -0.15621E-03 11569   0.133E-01    0.252E-02
RMM:   2    -0.201584940102E+03   -0.18341E-04   -0.18714E-04 10467   0.850E-02    0.249E-02
RMM:   3    -0.201584939631E+03    0.47165E-06   -0.86472E-06 10066   0.161E-02
   4 F= -.20834928E+03 E0= -.20834928E+03  d E =-.178509E-04  mag=     1.0000
 trial-energy change:   -0.000018  1 .order   -0.000016   -0.000021   -0.000011
 step:   0.6865(harm=  0.6865)  dis= 0.00046  next Energy=  -208.349287 (dE=-0.228E-04)
 reached required accuracy - stopping structural energy minimisation
