  32  32   0   0
  0.1044364E+02  0.4914906E-09  0.5410010E-09  0.1256864E-08  0.5000000E-15
  1.000000000000000E-004
  CAR 
 unknown system                          
     15.27669495    -17.69826910  301      0.13569062      1.00000000
    -17.698  0.0000E+00  0.0000E+00  0.0000E+00  0.0000E+00
    -17.588  0.0000E+00  0.0000E+00  0.0000E+00  0.0000E+00
    -17.478  0.0000E+00  0.0000E+00  0.0000E+00  0.0000E+00
    -17.369  0.0000E+00  0.0000E+00  0.0000E+00  0.0000E+00
    -17.259  0.0000E+00  0.0000E+00  0.0000E+00  0.0000E+00
    -17.149  0.0000E+00  0.0000E+00  0.0000E+00  0.0000E+00
    -17.039  0.0000E+00  0.0000E+00  0.0000E+00  0.0000E+00
    -16.929  0.0000E+00  0.0000E+00  0.0000E+00  0.0000E+00
    -16.819  0.0000E+00  0.0000E+00  0.0000E+00  0.0000E+00
    -16.709  0.0000E+00  0.0000E+00  0.0000E+00  0.0000E+00
    -16.599  0.0000E+00  0.0000E+00  0.0000E+00  0.0000E+00
    -16.489  0.0000E+00  0.0000E+00  0.0000E+00  0.0000E+00
    -16.379  0.0000E+00  0.0000E+00  0.0000E+00  0.0000E+00
    -16.269  0.9698E-04  0.9701E-04  0.1066E-04  0.1066E-04
    -16.159  0.7124E+00  0.7125E+00  0.7832E-01  0.7832E-01
    -16.050  0.5846E+01  0.5846E+01  0.7208E+00  0.7209E+00
    -15.940  0.9312E+01  0.9312E+01  0.1744E+01  0.1744E+01
    -15.830  0.1846E+02  0.1846E+02  0.3773E+01  0.3773E+01
    -15.720  0.2062E+01  0.2062E+01  0.4000E+01  0.4000E+01
    -15.610  0.1108E+02  0.1108E+02  0.5218E+01  0.5218E+01
    -15.500  0.5802E+02  0.5802E+02  0.1160E+02  0.1160E+02
    -15.390  0.3961E+02  0.3961E+02  0.1595E+02  0.1595E+02
    -15.280  0.4583E+00  0.4585E+00  0.1600E+02  0.1600E+02
    -15.170  0.0000E+00  0.0000E+00  0.1600E+02  0.1600E+02
    -15.060  0.0000E+00  0.0000E+00  0.1600E+02  0.1600E+02
    -14.950  0.0000E+00  0.0000E+00  0.1600E+02  0.1600E+02
    -14.840  0.0000E+00  0.0000E+00  0.1600E+02  0.1600E+02
    -14.731  0.0000E+00  0.0000E+00  0.1600E+02  0.1600E+02
    -14.621  0.0000E+00  0.0000E+00  0.1600E+02  0.1600E+02
    -14.511  0.0000E+00  0.0000E+00  0.1600E+02  0.1600E+02
    -14.401  0.0000E+00  0.0000E+00  0.1600E+02  0.1600E+02
    -14.291  0.0000E+00  0.0000E+00  0.1600E+02  0.1600E+02
    -14.181  0.0000E+00  0.0000E+00  0.1600E+02  0.1600E+02
    -14.071  0.0000E+00  0.0000E+00  0.1600E+02  0.1600E+02
    -13.961  0.0000E+00  0.0000E+00  0.1600E+02  0.1600E+02
    -13.851  0.0000E+00  0.0000E+00  0.1600E+02  0.1600E+02
    -13.741  0.0000E+00  0.0000E+00  0.1600E+02  0.1600E+02
    -13.631  0.0000E+00  0.0000E+00  0.1600E+02  0.1600E+02
    -13.521  0.0000E+00  0.0000E+00  0.1600E+02  0.1600E+02
    -13.412  0.0000E+00  0.0000E+00  0.1600E+02  0.1600E+02
    -13.302  0.0000E+00  0.0000E+00  0.1600E+02  0.1600E+02
    -13.192  0.0000E+00  0.0000E+00  0.1600E+02  0.1600E+02
    -13.082  0.0000E+00  0.0000E+00  0.1600E+02  0.1600E+02
    -12.972  0.0000E+00  0.0000E+00  0.1600E+02  0.1600E+02
    -12.862  0.0000E+00  0.0000E+00  0.1600E+02  0.1600E+02
    -12.752  0.0000E+00  0.0000E+00  0.1600E+02  0.1600E+02
    -12.642  0.0000E+00  0.0000E+00  0.1600E+02  0.1600E+02
    -12.532  0.0000E+00  0.0000E+00  0.1600E+02  0.1600E+02
    -12.422  0.0000E+00  0.0000E+00  0.1600E+02  0.1600E+02
    -12.312  0.0000E+00  0.0000E+00  0.1600E+02  0.1600E+02
    -12.202  0.0000E+00  0.0000E+00  0.1600E+02  0.1600E+02
    -12.093  0.0000E+00  0.0000E+00  0.1600E+02  0.1600E+02
    -11.983  0.0000E+00  0.0000E+00  0.1600E+02  0.1600E+02
    -11.873  0.0000E+00  0.0000E+00  0.1600E+02  0.1600E+02
    -11.763  0.0000E+00  0.0000E+00  0.1600E+02  0.1600E+02
    -11.653  0.0000E+00  0.0000E+00  0.1600E+02  0.1600E+02
    -11.543  0.0000E+00  0.0000E+00  0.1600E+02  0.1600E+02
    -11.433  0.0000E+00  0.0000E+00  0.1600E+02  0.1600E+02
    -11.323  0.0000E+00  0.0000E+00  0.1600E+02  0.1600E+02
    -11.213  0.0000E+00  0.0000E+00  0.1600E+02  0.1600E+02
    -11.103  0.0000E+00  0.0000E+00  0.1600E+02  0.1600E+02
    -10.993  0.0000E+00  0.0000E+00  0.1600E+02  0.1600E+02
    -10.883  0.0000E+00  0.0000E+00  0.1600E+02  0.1600E+02
    -10.774  0.0000E+00  0.0000E+00  0.1600E+02  0.1600E+02
    -10.664  0.0000E+00  0.0000E+00  0.1600E+02  0.1600E+02
    -10.554  0.0000E+00  0.0000E+00  0.1600E+02  0.1600E+02
    -10.444  0.0000E+00  0.0000E+00  0.1600E+02  0.1600E+02
    -10.334  0.0000E+00  0.0000E+00  0.1600E+02  0.1600E+02
    -10.224  0.0000E+00  0.0000E+00  0.1600E+02  0.1600E+02
    -10.114  0.0000E+00  0.0000E+00  0.1600E+02  0.1600E+02
    -10.004  0.0000E+00  0.0000E+00  0.1600E+02  0.1600E+02
     -9.894  0.0000E+00  0.0000E+00  0.1600E+02  0.1600E+02
     -9.784  0.0000E+00  0.0000E+00  0.1600E+02  0.1600E+02
     -9.674  0.0000E+00  0.0000E+00  0.1600E+02  0.1600E+02
     -9.564  0.0000E+00  0.0000E+00  0.1600E+02  0.1600E+02
     -9.455  0.0000E+00  0.0000E+00  0.1600E+02  0.1600E+02
     -9.345  0.0000E+00  0.0000E+00  0.1600E+02  0.1600E+02
     -9.235  0.0000E+00  0.0000E+00  0.1600E+02  0.1600E+02
     -9.125  0.0000E+00  0.0000E+00  0.1600E+02  0.1600E+02
     -9.015  0.0000E+00  0.0000E+00  0.1600E+02  0.1600E+02
     -8.905  0.0000E+00  0.0000E+00  0.1600E+02  0.1600E+02
     -8.795  0.0000E+00  0.0000E+00  0.1600E+02  0.1600E+02
     -8.685  0.0000E+00  0.0000E+00  0.1600E+02  0.1600E+02
     -8.575  0.0000E+00  0.0000E+00  0.1600E+02  0.1600E+02
     -8.465  0.0000E+00  0.0000E+00  0.1600E+02  0.1600E+02
     -8.355  0.0000E+00  0.0000E+00  0.1600E+02  0.1600E+02
     -8.245  0.0000E+00  0.0000E+00  0.1600E+02  0.1600E+02
     -8.136  0.0000E+00  0.0000E+00  0.1600E+02  0.1600E+02
     -8.026  0.0000E+00  0.0000E+00  0.1600E+02  0.1600E+02
     -7.916  0.0000E+00  0.0000E+00  0.1600E+02  0.1600E+02
     -7.806  0.0000E+00  0.0000E+00  0.1600E+02  0.1600E+02
     -7.696  0.0000E+00  0.0000E+00  0.1600E+02  0.1600E+02
     -7.586  0.0000E+00  0.0000E+00  0.1600E+02  0.1600E+02
     -7.476  0.0000E+00  0.0000E+00  0.1600E+02  0.1600E+02
     -7.366  0.0000E+00  0.0000E+00  0.1600E+02  0.1600E+02
     -7.256  0.0000E+00  0.0000E+00  0.1600E+02  0.1600E+02
     -7.146  0.0000E+00  0.0000E+00  0.1600E+02  0.1600E+02
     -7.036  0.0000E+00  0.0000E+00  0.1600E+02  0.1600E+02
     -6.926  0.0000E+00  0.0000E+00  0.1600E+02  0.1600E+02
     -6.817  0.0000E+00  0.0000E+00  0.1600E+02  0.1600E+02
     -6.707  0.0000E+00  0.0000E+00  0.1600E+02  0.1600E+02
     -6.597  0.0000E+00  0.0000E+00  0.1600E+02  0.1600E+02
     -6.487  0.0000E+00  0.0000E+00  0.1600E+02  0.1600E+02
     -6.377  0.0000E+00  0.0000E+00  0.1600E+02  0.1600E+02
     -6.267  0.0000E+00  0.0000E+00  0.1600E+02  0.1600E+02
     -6.157  0.0000E+00  0.0000E+00  0.1600E+02  0.1600E+02
     -6.047  0.0000E+00  0.0000E+00  0.1600E+02  0.1600E+02
     -5.937  0.0000E+00  0.0000E+00  0.1600E+02  0.1600E+02
     -5.827  0.0000E+00  0.0000E+00  0.1600E+02  0.1600E+02
     -5.717  0.0000E+00  0.0000E+00  0.1600E+02  0.1600E+02
     -5.607  0.0000E+00  0.0000E+00  0.1600E+02  0.1600E+02
     -5.498  0.0000E+00  0.0000E+00  0.1600E+02  0.1600E+02
     -5.388  0.0000E+00  0.0000E+00  0.1600E+02  0.1600E+02
     -5.278  0.0000E+00  0.0000E+00  0.1600E+02  0.1600E+02
     -5.168  0.0000E+00  0.0000E+00  0.1600E+02  0.1600E+02
     -5.058  0.0000E+00  0.0000E+00  0.1600E+02  0.1600E+02
     -4.948  0.0000E+00  0.0000E+00  0.1600E+02  0.1600E+02
     -4.838  0.0000E+00  0.0000E+00  0.1600E+02  0.1600E+02
     -4.728  0.0000E+00  0.0000E+00  0.1600E+02  0.1600E+02
     -4.618  0.0000E+00  0.0000E+00  0.1600E+02  0.1600E+02
     -4.508  0.0000E+00  0.0000E+00  0.1600E+02  0.1600E+02
     -4.398  0.0000E+00  0.0000E+00  0.1600E+02  0.1600E+02
     -4.288  0.0000E+00  0.0000E+00  0.1600E+02  0.1600E+02
     -4.179  0.0000E+00  0.0000E+00  0.1600E+02  0.1600E+02
     -4.069  0.0000E+00  0.0000E+00  0.1600E+02  0.1600E+02
     -3.959  0.0000E+00  0.0000E+00  0.1600E+02  0.1600E+02
     -3.849  0.0000E+00  0.0000E+00  0.1600E+02  0.1600E+02
     -3.739  0.0000E+00  0.0000E+00  0.1600E+02  0.1600E+02
     -3.629  0.0000E+00  0.0000E+00  0.1600E+02  0.1600E+02
     -3.519  0.0000E+00  0.0000E+00  0.1600E+02  0.1600E+02
     -3.409  0.0000E+00  0.0000E+00  0.1600E+02  0.1600E+02
     -3.299  0.2453E-03  0.2447E-03  0.1600E+02  0.1600E+02
     -3.189  0.3794E+01  0.3792E+01  0.1642E+02  0.1642E+02
     -3.079  0.1623E+02  0.1623E+02  0.1820E+02  0.1820E+02
     -2.969  0.1862E+02  0.1862E+02  0.2025E+02  0.2025E+02
     -2.860  0.1785E+02  0.1785E+02  0.2221E+02  0.2221E+02
     -2.750  0.1788E+02  0.1788E+02  0.2418E+02  0.2418E+02
     -2.640  0.1803E+02  0.1803E+02  0.2616E+02  0.2616E+02
     -2.530  0.1122E+02  0.1122E+02  0.2739E+02  0.2739E+02
     -2.420  0.1277E+02  0.1277E+02  0.2879E+02  0.2879E+02
     -2.310  0.1726E+02  0.1726E+02  0.3069E+02  0.3069E+02
     -2.200  0.2394E+02  0.2394E+02  0.3332E+02  0.3332E+02
     -2.090  0.1771E+02  0.1771E+02  0.3527E+02  0.3527E+02
     -1.980  0.1607E+02  0.1607E+02  0.3704E+02  0.3704E+02
     -1.870  0.1858E+02  0.1858E+02  0.3908E+02  0.3908E+02
     -1.760  0.7076E+01  0.7077E+01  0.3986E+02  0.3986E+02
     -1.650  0.4672E+01  0.4672E+01  0.4037E+02  0.4037E+02
     -1.541  0.6263E+01  0.6263E+01  0.4106E+02  0.4106E+02
     -1.431  0.1160E+02  0.1160E+02  0.4233E+02  0.4233E+02
     -1.321  0.1167E+02  0.1167E+02  0.4362E+02  0.4362E+02
     -1.211  0.1157E+02  0.1157E+02  0.4489E+02  0.4489E+02
     -1.101  0.1236E+02  0.1236E+02  0.4625E+02  0.4625E+02
     -0.991  0.1755E+02  0.1755E+02  0.4817E+02  0.4817E+02
     -0.881  0.1073E+02  0.1073E+02  0.4935E+02  0.4935E+02
     -0.771  0.1312E+02  0.1312E+02  0.5080E+02  0.5080E+02
     -0.661  0.1374E+02  0.1374E+02  0.5231E+02  0.5231E+02
     -0.551  0.1234E+02  0.1234E+02  0.5366E+02  0.5366E+02
     -0.441  0.1669E+02  0.1669E+02  0.5550E+02  0.5550E+02
     -0.331  0.2096E+02  0.2096E+02  0.5780E+02  0.5780E+02
     -0.222  0.1944E+02  0.1945E+02  0.5994E+02  0.5994E+02
     -0.112  0.2581E+02  0.2581E+02  0.6278E+02  0.6278E+02
     -0.002  0.1098E+02  0.1098E+02  0.6398E+02  0.6398E+02
      0.108  0.1625E+00  0.1625E+00  0.6400E+02  0.6400E+02
      0.218  0.1827E-06  0.1825E-06  0.6400E+02  0.6400E+02
      0.328  0.0000E+00  0.0000E+00  0.6400E+02  0.6400E+02
      0.438  0.0000E+00  0.0000E+00  0.6400E+02  0.6400E+02
      0.548  0.0000E+00  0.0000E+00  0.6400E+02  0.6400E+02
      0.658  0.0000E+00  0.0000E+00  0.6400E+02  0.6400E+02
      0.768  0.0000E+00  0.0000E+00  0.6400E+02  0.6400E+02
      0.878  0.0000E+00  0.0000E+00  0.6400E+02  0.6400E+02
      0.988  0.0000E+00  0.0000E+00  0.6400E+02  0.6400E+02
      1.097  0.0000E+00  0.0000E+00  0.6400E+02  0.6400E+02
      1.207  0.0000E+00  0.0000E+00  0.6400E+02  0.6400E+02
      1.317  0.0000E+00  0.0000E+00  0.6400E+02  0.6400E+02
      1.427  0.0000E+00  0.0000E+00  0.6400E+02  0.6400E+02
      1.537  0.0000E+00  0.0000E+00  0.6400E+02  0.6400E+02
      1.647  0.0000E+00  0.0000E+00  0.6400E+02  0.6400E+02
      1.757  0.0000E+00  0.0000E+00  0.6400E+02  0.6400E+02
      1.867  0.0000E+00  0.0000E+00  0.6400E+02  0.6400E+02
      1.977  0.0000E+00  0.0000E+00  0.6400E+02  0.6400E+02
      2.087  0.0000E+00  0.0000E+00  0.6400E+02  0.6400E+02
      2.197  0.0000E+00  0.0000E+00  0.6400E+02  0.6400E+02
      2.307  0.0000E+00  0.0000E+00  0.6400E+02  0.6400E+02
      2.416  0.0000E+00  0.0000E+00  0.6400E+02  0.6400E+02
      2.526  0.0000E+00  0.0000E+00  0.6400E+02  0.6400E+02
      2.636  0.0000E+00  0.0000E+00  0.6400E+02  0.6400E+02
      2.746  0.0000E+00  0.0000E+00  0.6400E+02  0.6400E+02
      2.856  0.0000E+00  0.0000E+00  0.6400E+02  0.6400E+02
      2.966  0.0000E+00  0.0000E+00  0.6400E+02  0.6400E+02
      3.076  0.0000E+00  0.0000E+00  0.6400E+02  0.6400E+02
      3.186  0.0000E+00  0.0000E+00  0.6400E+02  0.6400E+02
      3.296  0.0000E+00  0.0000E+00  0.6400E+02  0.6400E+02
      3.406  0.0000E+00  0.0000E+00  0.6400E+02  0.6400E+02
      3.516  0.0000E+00  0.0000E+00  0.6400E+02  0.6400E+02
      3.626  0.0000E+00  0.0000E+00  0.6400E+02  0.6400E+02
      3.735  0.0000E+00  0.0000E+00  0.6400E+02  0.6400E+02
      3.845  0.0000E+00  0.0000E+00  0.6400E+02  0.6400E+02
      3.955  0.1120E-11  0.1095E-11  0.6400E+02  0.6400E+02
      4.065  0.4938E-01  0.4897E-01  0.6401E+02  0.6401E+02
      4.175  0.2331E+02  0.2329E+02  0.6657E+02  0.6657E+02
      4.285  0.4280E+02  0.4280E+02  0.7127E+02  0.7127E+02
      4.395  0.6621E+01  0.6639E+01  0.7200E+02  0.7200E+02
      4.505  0.6413E-02  0.6391E-02  0.7200E+02  0.7200E+02
      4.615  0.1374E+01  0.1373E+01  0.7215E+02  0.7215E+02
      4.725  0.2004E+01  0.2005E+01  0.7237E+02  0.7237E+02
      4.835  0.3887E+01  0.3885E+01  0.7280E+02  0.7280E+02
      4.945  0.1967E+02  0.1966E+02  0.7496E+02  0.7496E+02
      5.054  0.2247E+02  0.2247E+02  0.7743E+02  0.7743E+02
      5.164  0.3219E+02  0.3219E+02  0.8097E+02  0.8097E+02
      5.274  0.1793E+02  0.1794E+02  0.8294E+02  0.8294E+02
      5.384  0.1122E+01  0.1122E+01  0.8306E+02  0.8306E+02
      5.494  0.7873E+01  0.7872E+01  0.8393E+02  0.8393E+02
      5.604  0.6517E+00  0.6537E+00  0.8400E+02  0.8400E+02
      5.714  0.2162E-08  0.2187E-08  0.8400E+02  0.8400E+02
      5.824  0.0000E+00  0.0000E+00  0.8400E+02  0.8400E+02
      5.934  0.0000E+00  0.0000E+00  0.8400E+02  0.8400E+02
      6.044  0.0000E+00  0.0000E+00  0.8400E+02  0.8400E+02
      6.154  0.0000E+00  0.0000E+00  0.8400E+02  0.8400E+02
      6.264  0.0000E+00  0.0000E+00  0.8400E+02  0.8400E+02
      6.373  0.9205E-10  0.9332E-10  0.8400E+02  0.8400E+02
      6.483  0.3327E-01  0.3338E-01  0.8400E+02  0.8400E+02
      6.593  0.1563E+00  0.1562E+00  0.8402E+02  0.8402E+02
      6.703  0.2935E+00  0.2937E+00  0.8405E+02  0.8405E+02
      6.813  0.8556E-01  0.8533E-01  0.8406E+02  0.8406E+02
      6.923  0.1871E-03  0.1884E-03  0.8406E+02  0.8406E+02
      7.033  0.3677E+00  0.3677E+00  0.8410E+02  0.8410E+02
      7.143  0.8391E+00  0.8401E+00  0.8420E+02  0.8420E+02
      7.253  0.1013E+01  0.1012E+01  0.8431E+02  0.8431E+02
      7.363  0.4336E+00  0.4331E+00  0.8435E+02  0.8435E+02
      7.473  0.3973E+00  0.3979E+00  0.8440E+02  0.8440E+02
      7.583  0.2280E+01  0.2281E+01  0.8465E+02  0.8465E+02
      7.692  0.1113E+01  0.1112E+01  0.8477E+02  0.8477E+02
      7.802  0.3726E+00  0.3729E+00  0.8481E+02  0.8481E+02
      7.912  0.1727E+01  0.1726E+01  0.8500E+02  0.8500E+02
      8.022  0.4733E+00  0.4736E+00  0.8505E+02  0.8505E+02
      8.132  0.1771E+01  0.1770E+01  0.8525E+02  0.8525E+02
      8.242  0.1332E+01  0.1333E+01  0.8539E+02  0.8539E+02
      8.352  0.1614E+01  0.1613E+01  0.8557E+02  0.8557E+02
      8.462  0.1217E+01  0.1217E+01  0.8571E+02  0.8571E+02
      8.572  0.2394E+01  0.2395E+01  0.8597E+02  0.8597E+02
      8.682  0.5121E+01  0.5122E+01  0.8653E+02  0.8653E+02
      8.792  0.5532E+01  0.5530E+01  0.8714E+02  0.8714E+02
      8.902  0.4412E+00  0.4406E+00  0.8719E+02  0.8719E+02
      9.011  0.2029E+01  0.2029E+01  0.8741E+02  0.8741E+02
      9.121  0.1571E+01  0.1572E+01  0.8758E+02  0.8758E+02
      9.231  0.2009E+01  0.2009E+01  0.8780E+02  0.8780E+02
      9.341  0.1357E+01  0.1357E+01  0.8795E+02  0.8795E+02
      9.451  0.2395E+01  0.2396E+01  0.8822E+02  0.8822E+02
      9.561  0.4070E+01  0.4073E+01  0.8866E+02  0.8867E+02
      9.671  0.8413E+01  0.8410E+01  0.8959E+02  0.8959E+02
      9.781  0.3800E+01  0.3802E+01  0.9001E+02  0.9001E+02
      9.891  0.3480E+01  0.3478E+01  0.9039E+02  0.9039E+02
     10.001  0.2279E+01  0.2278E+01  0.9064E+02  0.9064E+02
     10.111  0.2001E+01  0.2000E+01  0.9086E+02  0.9086E+02
     10.221  0.2691E+01  0.2693E+01  0.9116E+02  0.9116E+02
     10.330  0.7849E+01  0.7851E+01  0.9202E+02  0.9202E+02
     10.440  0.4132E+01  0.4130E+01  0.9247E+02  0.9247E+02
     10.550  0.3971E+01  0.3972E+01  0.9291E+02  0.9291E+02
     10.660  0.6959E+01  0.6963E+01  0.9367E+02  0.9367E+02
     10.770  0.8494E+01  0.8494E+01  0.9461E+02  0.9461E+02
     10.880  0.7976E+01  0.7972E+01  0.9548E+02  0.9548E+02
     10.990  0.2450E+01  0.2450E+01  0.9575E+02  0.9575E+02
     11.100  0.3473E+01  0.3475E+01  0.9614E+02  0.9614E+02
     11.210  0.7610E+01  0.7609E+01  0.9697E+02  0.9697E+02
     11.320  0.7296E+01  0.7296E+01  0.9777E+02  0.9777E+02
     11.430  0.6918E+01  0.6932E+01  0.9853E+02  0.9854E+02
     11.540  0.4363E+01  0.4311E+01  0.9901E+02  0.9901E+02
     11.649  0.6842E+00  0.7226E+00  0.9909E+02  0.9909E+02
     11.759  0.7267E+00  0.7446E+00  0.9917E+02  0.9917E+02
     11.869  0.9171E+00  0.9023E+00  0.9927E+02  0.9927E+02
     11.979  0.1476E+01  0.1549E+01  0.9943E+02  0.9944E+02
     12.089  0.1890E+01  0.1724E+01  0.9964E+02  0.9963E+02
     12.199  0.2072E+01  0.2422E+01  0.9987E+02  0.9990E+02
     12.309  0.1960E+01  0.1940E+01  0.1001E+03  0.1001E+03
     12.419  0.3472E+00  0.1901E+00  0.1001E+03  0.1001E+03
     12.529  0.4193E+00  0.4481E+00  0.1002E+03  0.1002E+03
     12.639  0.1214E+01  0.8813E+00  0.1003E+03  0.1003E+03
     12.749  0.2741E+01  0.2250E+01  0.1006E+03  0.1005E+03
     12.859  0.4852E+01  0.5075E+01  0.1011E+03  0.1011E+03
     12.968  0.4500E+01  0.3331E+01  0.1016E+03  0.1014E+03
     13.078  0.4095E+01  0.6292E+01  0.1021E+03  0.1021E+03
     13.188  0.4654E+01  0.2841E+01  0.1026E+03  0.1025E+03
     13.298  0.4172E+01  0.3094E+01  0.1030E+03  0.1028E+03
     13.408  0.3707E+01  0.5378E+01  0.1035E+03  0.1034E+03
     13.518  0.2535E+01  0.3802E+01  0.1037E+03  0.1038E+03
     13.628  0.1243E+01  0.5167E+00  0.1039E+03  0.1039E+03
     13.738  0.7273E+00  0.6347E+00  0.1040E+03  0.1039E+03
     13.848  0.4311E+00  0.6598E+00  0.1040E+03  0.1040E+03
     13.958  0.1850E-03  0.1912E-04  0.1040E+03  0.1040E+03
     14.068  0.0000E+00  0.0000E+00  0.1040E+03  0.1040E+03
     14.178  0.0000E+00  0.0000E+00  0.1040E+03  0.1040E+03
     14.287  0.0000E+00  0.0000E+00  0.1040E+03  0.1040E+03
     14.397  0.0000E+00  0.0000E+00  0.1040E+03  0.1040E+03
     14.507  0.0000E+00  0.0000E+00  0.1040E+03  0.1040E+03
     14.617  0.0000E+00  0.0000E+00  0.1040E+03  0.1040E+03
     14.727  0.0000E+00  0.0000E+00  0.1040E+03  0.1040E+03
     14.837  0.0000E+00  0.0000E+00  0.1040E+03  0.1040E+03
     14.947  0.0000E+00  0.0000E+00  0.1040E+03  0.1040E+03
     15.057  0.0000E+00  0.0000E+00  0.1040E+03  0.1040E+03
     15.167  0.0000E+00  0.0000E+00  0.1040E+03  0.1040E+03
     15.277  0.0000E+00  0.0000E+00  0.1040E+03  0.1040E+03
