 vasp.5.4.1 05Feb16 (build Apr 23 2022 14:15:44) complex                        
  
 executed on           IFC91_ompi date 2024.11.30  11:17:07
 running on   64 total cores
 distrk:  each k-point on   64 cores,    1 groups
 distr:  one band on NCORES_PER_BAND=   8 cores,    8 groups


--------------------------------------------------------------------------------------------------------


 INCAR:
 POTCAR:    PAW_PBE Li 17Jan2003                  
 POTCAR:    PAW_PBE V 08Apr2002                   
 POTCAR:    PAW_PBE O 08Apr2002                   
 POTCAR:    PAW_PBE Li 17Jan2003                  
   VRHFIN =Li: s1p0                                                             
   LEXCH  = PE                                                                  
   EATOM  =     5.3001 eV,    0.3895 Ry                                         
                                                                                
   TITEL  = PAW_PBE Li 17Jan2003                                                
   LULTRA =        F    use ultrasoft PP ?                                      
   IUNSCR =        1    unscreen: 0-lin 1-nonlin 2-no                           
   RPACOR =    1.500    partial core radius                                     
   POMASS =    7.010; ZVAL   =    1.000    mass and valenz                      
   RCORE  =    2.050    outmost cutoff radius                                   
   RWIGS  =    2.600; RWIGS  =    1.376    wigner-seitz radius (au A)           
   ENMAX  =  140.000; ENMIN  =  100.000 eV                                      
   ICORE  =        2    local potential                                         
   LCOR   =        T    correct aug charges                                     
   LPAW   =        T    paw PP                                                  
   EAUG   =  331.638                                                            
   DEXC   =    0.000                                                            
   RMAX   =    2.098    core radius for proj-oper                               
   RAUG   =    1.300    factor for augmentation sphere                          
   RDEP   =    2.094    radius for radial grids                                 
   RDEPT  =    1.810    core radius for aug-charge                              
                                                                                
   Atomic configuration                                                         
    4 entries                                                                   
     n  l   j            E        occ.                                          
     1  0  0.50       -51.8549   2.0000                                         
     2  0  0.50        -2.8742   1.0000                                         
     2  1  0.50        -1.3606   0.0000                                         
     3  2  1.50        -1.3606   0.0000                                         
   Description                                                                  
     l       E           TYP  RCUT    TYP  RCUT                                 
     0     -2.8742052     23  2.050                                             
     0     27.2116520     23  2.050                                             
     1     -1.3605826     23  2.050                                             
     2     -1.3605826     23  2.050                                             
  local pseudopotential read in
  partial core-charges read in
  partial kinetic energy density read in
  atomic valenz-charges read in
  non local Contribution for L=           0  read in
    real space projection operators read in
  non local Contribution for L=           0  read in
    real space projection operators read in
  non local Contribution for L=           1  read in
    real space projection operators read in
    PAW grid and wavefunctions read in
 
   number of l-projection  operators is LMAX  =           3
   number of lm-projection operators is LMMAX =           5
 
 POTCAR:    PAW_PBE V 08Apr2002                   
   VRHFIN =V: p6 d4 s1                                                          
   LEXCH  = PE                                                                  
   EATOM  =   170.8679 eV,   12.5584 Ry                                         
                                                                                
   TITEL  = PAW_PBE V 08Apr2002                                                 
   LULTRA =        F    use ultrasoft PP ?                                      
   IUNSCR =        1    unscreen: 0-lin 1-nonlin 2-no                           
   RPACOR =    2.000    partial core radius                                     
   POMASS =   50.941; ZVAL   =    5.000    mass and valenz                      
   RCORE  =    2.700    outmost cutoff radius                                   
   RWIGS  =    2.500; RWIGS  =    1.323    wigner-seitz radius (au A)           
   ENMAX  =  192.543; ENMIN  =  144.408 eV                                      
   RCLOC  =    1.779    cutoff for local pot                                    
   LCOR   =        T    correct aug charges                                     
   LPAW   =        T    paw PP                                                  
   EAUG   =  358.662                                                            
   DEXC   =    0.000                                                            
   RMAX   =    2.768    core radius for proj-oper                               
   RAUG   =    1.300    factor for augmentation sphere                          
   RDEP   =    2.762    radius for radial grids                                 
   RDEPT  =    2.240    core radius for aug-charge                              
                                                                                
   Atomic configuration                                                         
    9 entries                                                                   
     n  l   j            E        occ.                                          
     1  0  0.50     -5360.7193   2.0000                                         
     2  0  0.50      -598.4546   2.0000                                         
     2  1  1.50      -499.0155   6.0000                                         
     3  0  0.50       -66.5711   2.0000                                         
     3  1  1.50       -40.5282   6.0000                                         
     3  2  2.50        -2.4291   4.0000                                         
     4  0  0.50        -3.8743   1.0000                                         
     4  1  0.50        -2.7212   0.0000                                         
     4  3  2.50        -1.3606   0.0000                                         
   Description                                                                  
     l       E           TYP  RCUT    TYP  RCUT                                 
     2     -2.4290901     23  2.700                                             
     2     -3.7896727     23  2.700                                             
     0     -3.8742752     23  2.700                                             
     0     27.2116520     23  2.700                                             
     1     -2.7211652     23  2.700                                             
     1     27.2116520     23  2.700                                             
  local pseudopotential read in
  partial core-charges read in
  partial kinetic energy density read in
  atomic valenz-charges read in
  non local Contribution for L=           2  read in
    real space projection operators read in
  non local Contribution for L=           2  read in
    real space projection operators read in
  non local Contribution for L=           0  read in
    real space projection operators read in
  non local Contribution for L=           0  read in
    real space projection operators read in
  non local Contribution for L=           1  read in
    real space projection operators read in
  non local Contribution for L=           1  read in
    real space projection operators read in
    PAW grid and wavefunctions read in
 
   number of l-projection  operators is LMAX  =           6
   number of lm-projection operators is LMMAX =          18
 
 POTCAR:    PAW_PBE O 08Apr2002                   
   VRHFIN =O: s2p4                                                              
   LEXCH  = PE                                                                  
   EATOM  =   432.3788 eV,   31.7789 Ry                                         
                                                                                
   TITEL  = PAW_PBE O 08Apr2002                                                 
   LULTRA =        F    use ultrasoft PP ?                                      
   IUNSCR =        1    unscreen: 0-lin 1-nonlin 2-no                           
   RPACOR =    1.200    partial core radius                                     
   POMASS =   16.000; ZVAL   =    6.000    mass and valenz                      
   RCORE  =    1.520    outmost cutoff radius                                   
   RWIGS  =    1.550; RWIGS  =    0.820    wigner-seitz radius (au A)           
   ENMAX  =  400.000; ENMIN  =  300.000 eV                                      
   ICORE  =        2    local potential                                         
   LCOR   =        T    correct aug charges                                     
   LPAW   =        T    paw PP                                                  
   EAUG   =  605.392                                                            
   DEXC   =    0.000                                                            
   RMAX   =    1.553    core radius for proj-oper                               
   RAUG   =    1.300    factor for augmentation sphere                          
   RDEP   =    1.550    radius for radial grids                                 
   RDEPT  =    1.329    core radius for aug-charge                              
                                                                                
   Atomic configuration                                                         
    4 entries                                                                   
     n  l   j            E        occ.                                          
     1  0  0.50      -514.6923   2.0000                                         
     2  0  0.50       -23.9615   2.0000                                         
     2  1  0.50        -9.0305   4.0000                                         
     3  2  1.50        -9.5241   0.0000                                         
   Description                                                                  
     l       E           TYP  RCUT    TYP  RCUT                                 
     0    -23.9615318     23  1.200                                             
     0     -9.5240782     23  1.200                                             
     1     -9.0304911     23  1.520                                             
     1      8.1634956     23  1.520                                             
     2     -9.5240782      7  1.500                                             
  local pseudopotential read in
  partial core-charges read in
  partial kinetic energy density read in
  kinetic energy density of atom read in
  atomic valenz-charges read in
  non local Contribution for L=           0  read in
    real space projection operators read in
  non local Contribution for L=           0  read in
    real space projection operators read in
  non local Contribution for L=           1  read in
    real space projection operators read in
  non local Contribution for L=           1  read in
    real space projection operators read in
    PAW grid and wavefunctions read in
 
   number of l-projection  operators is LMAX  =           4
   number of lm-projection operators is LMMAX =           8
 
 Optimization of the real space projectors (new method)

 maximal supplied QI-value         = 18.33
 optimisation between [QCUT,QGAM] = [ 12.46, 24.93] = [ 43.51,174.03] Ry 
 Optimized for a Real-space Cutoff    1.13 Angstroem

   l    n(q)    QCUT    max X(q) W(low)/X(q) W(high)/X(q)  e(spline) 
   0      8    12.465    33.825    0.12E-03    0.29E-03    0.99E-07
   0      8    12.465     8.944    0.86E-04    0.22E-03    0.72E-07
   1      8    12.465     4.214    0.27E-03    0.11E-03    0.82E-07
 Optimization of the real space projectors (new method)

 maximal supplied QI-value         = 13.98
 optimisation between [QCUT,QGAM] = [ 12.45, 25.03] = [ 43.38,175.46] Ry 
 Optimized for a Real-space Cutoff    1.56 Angstroem

   l    n(q)    QCUT    max X(q) W(low)/X(q) W(high)/X(q)  e(spline) 
   2     11    12.446    96.114    0.19E-03    0.47E-04    0.85E-06
   2     11    12.446    88.986    0.19E-03    0.46E-04    0.86E-06
   0     12    12.446    20.919    0.37E-04    0.64E-04    0.43E-06
   0     12    12.446     9.593    0.25E-04    0.48E-04    0.33E-06
   1     11    12.446    11.615    0.75E-04    0.30E-04    0.59E-06
   1     11    12.446     7.031    0.53E-04    0.23E-04    0.40E-06
 Optimization of the real space projectors (new method)

 maximal supplied QI-value         = 24.76
 optimisation between [QCUT,QGAM] = [ 12.38, 25.00] = [ 42.90,175.06] Ry 
 Optimized for a Real-space Cutoff    1.13 Angstroem

   l    n(q)    QCUT    max X(q) W(low)/X(q) W(high)/X(q)  e(spline) 
   0      8    12.378    20.381    0.16E-03    0.54E-05    0.27E-06
   0      8    12.378    15.268    0.17E-03    0.61E-05    0.29E-06
   1      8    12.378     5.964    0.38E-03    0.23E-03    0.28E-06
   1      8    12.378     5.382    0.33E-03    0.20E-03    0.25E-06
  PAW_PBE Li 17Jan2003                  :
 energy of atom  1       EATOM=   -5.3001
 kinetic energy error for atom=    0.0000 (will be added to EATOM!!)
  PAW_PBE V 08Apr2002                   :
 energy of atom  2       EATOM= -170.8679
 kinetic energy error for atom=    0.0002 (will be added to EATOM!!)
  PAW_PBE O 08Apr2002                   :
 energy of atom  3       EATOM= -432.3788
 kinetic energy error for atom=    0.0168 (will be added to EATOM!!)
 
 
 POSCAR: Li  V  O                                
  positions in cartesian coordinates
  No initial velocities read in
 exchange correlation table for  LEXCH =        8
   RHO(1)=    0.500       N(1)  =     2000
   RHO(2)=  100.500       N(2)  =     4000

 VTST: version 3.1, (03/28/14)

 CHAIN: initializing optimizer
 
 OPT: Using VASP Dynamics algorithm
 CHAIN: Read ICHAIN            0
 
 POSCAR: Li  V  O                                
  positions in cartesian coordinates
  No initial velocities read in
 


--------------------------------------------------------------------------------------------------------


 ion  position               nearest neighbor table
   1  0.010  0.667  0.124-  24 1.93  17 1.94  23 1.95  20 1.96  14 3.02   6 3.04   6 3.04   2 3.05
                             2 3.05  14 3.09  10 3.11  13 3.11  13 3.13   5 3.13   5 3.14   4 3.17
   2  0.510  0.333  0.126-  18 1.93  20 1.94  22 1.95  17 1.96  13 3.02   5 3.04   5 3.04   1 3.05
                             1 3.05  13 3.09   3 3.11  14 3.11  14 3.13   6 3.13   6 3.14   9 3.17
   3  0.510  0.333  0.374-  26 1.93  21 1.94  22 1.95  19 1.96  15 3.02   5 3.04   5 3.04   4 3.05
                             4 3.05  15 3.09   2 3.11  14 3.11  14 3.13  12 3.13  12 3.14   8 3.17
   4  0.010  0.667  0.376-  24 1.93  19 1.94  31 1.95  21 1.96  14 3.02  12 3.04  12 3.04   3 3.05
                             3 3.05  14 3.09   7 3.11  15 3.11  15 3.13   5 3.13   5 3.14   1 3.17
   5  0.011  0.169  0.250-  17 1.96  19 1.96  24 1.97  22 1.97  14 3.03   2 3.04   3 3.04   2 3.04
                             3 3.04  14 3.10   1 3.13   4 3.13   4 3.14   1 3.14  15 3.14  13 3.14
   6  0.511  0.831  0.000-  20 1.96  29 1.96  18 1.97  23 1.97  13 3.03   1 3.04  10 3.04   1 3.04
                            10 3.04  13 3.10   9 3.13   2 3.13   2 3.14   9 3.14  16 3.14  14 3.14
   7  0.010  0.667  0.624-  32 1.93  25 1.94  31 1.95  28 1.96  16 3.02  12 3.04  12 3.04   8 3.05
                             8 3.05  16 3.09   4 3.11  15 3.11  15 3.13  11 3.13  11 3.14  10 3.17
   8  0.510  0.333  0.626-  26 1.93  28 1.94  30 1.95  25 1.96  15 3.02  11 3.04  11 3.04   7 3.05
                             7 3.05  15 3.09   9 3.11  16 3.11  16 3.13  12 3.13  12 3.14   3 3.17
   9  0.510  0.333  0.874-  18 1.93  29 1.94  30 1.95  27 1.96  13 3.02  11 3.04  11 3.04  10 3.05
                            10 3.05  13 3.09   8 3.11  16 3.11  16 3.13   6 3.13   6 3.14   2 3.17
  10  0.010  0.667  0.876-  32 1.93  27 1.94  23 1.95  29 1.96  16 3.02   6 3.04   6 3.04   9 3.05
                             9 3.05  16 3.09   1 3.11  13 3.11  13 3.13  11 3.13  11 3.14   7 3.17
  11  0.011  0.169  0.750-  27 1.96  25 1.96  32 1.97  30 1.97  16 3.03   8 3.04   9 3.04   8 3.04
                             9 3.04  16 3.10  10 3.13   7 3.13  10 3.14   7 3.14  13 3.14  15 3.14
  12  0.511  0.831  0.500-  21 1.96  28 1.96  26 1.97  31 1.97  15 3.03   7 3.04   4 3.04   7 3.04
                             4 3.04  15 3.10   3 3.13   8 3.13   3 3.14   8 3.14  16 3.14  14 3.14
  13  0.002  0.169  0.000-  18 1.73  23 1.74  17 1.74  27 1.74   2 3.02   9 3.02   6 3.03   9 3.09
                             2 3.09   6 3.10   1 3.11  10 3.11   1 3.13  10 3.13   5 3.14  11 3.14
  14  0.502  0.831  0.250-  24 1.73  22 1.74  21 1.74  20 1.74   4 3.02   1 3.02   5 3.03   4 3.09
                             1 3.09   5 3.10   2 3.11   3 3.11   3 3.13   2 3.13   6 3.14  12 3.14
  15  0.002  0.169  0.500-  26 1.73  31 1.74  25 1.74  19 1.74   3 3.02   8 3.02  12 3.03   8 3.09
                             3 3.09  12 3.10   4 3.11   7 3.11   4 3.13   7 3.13  11 3.14   5 3.14
  16  0.502  0.831  0.750-  32 1.73  30 1.74  28 1.74  29 1.74  10 3.02   7 3.02  11 3.03  10 3.09
                             7 3.09  11 3.10   8 3.11   9 3.11   9 3.13   8 3.13   6 3.14  12 3.14
  17  0.112  0.322  0.114-  13 1.74   1 1.94   2 1.96   5 1.96
  18  0.650  0.172  0.000-  13 1.73   9 1.93   2 1.93   6 1.97
  19  0.112  0.322  0.386-  15 1.74   4 1.94   3 1.96   5 1.96
  20  0.612  0.678  0.136-  14 1.74   2 1.94   1 1.96   6 1.96
  21  0.612  0.678  0.364-  14 1.74   3 1.94   4 1.96  12 1.96
  22  0.610  0.136  0.250-  14 1.74   3 1.95   2 1.95   5 1.97
  23  0.110  0.864  0.000-  13 1.74   1 1.95  10 1.95   6 1.97
  24  0.150  0.828  0.250-  14 1.73   4 1.93   1 1.93   5 1.97
  25  0.112  0.322  0.614-  15 1.74   7 1.94   8 1.96  11 1.96
  26  0.650  0.172  0.500-  15 1.73   8 1.93   3 1.93  12 1.97
  27  0.112  0.322  0.886-  13 1.74  10 1.94   9 1.96  11 1.96
  28  0.612  0.678  0.636-  16 1.74   8 1.94   7 1.96  12 1.96
  29  0.612  0.678  0.864-  16 1.74   9 1.94  10 1.96   6 1.96
  30  0.610  0.136  0.750-  16 1.74   9 1.95   8 1.95  11 1.97
  31  0.110  0.864  0.500-  15 1.74   7 1.95   4 1.95  12 1.97
  32  0.150  0.828  0.750-  16 1.73  10 1.93   7 1.93  11 1.97
 
  LATTYP: Found a simple orthorhombic cell.
 ALAT       =     4.9149058127
 B/A-ratio  =     1.1007353143
 C/A-ratio  =     2.5572500255
  
  Lattice vectors:
  
 A1 = (   4.9149058127,   0.0000000000,   0.0000000000)
 A2 = (   0.0000000000,   5.4100103945,   0.0000000000)
 A3 = (   0.0000000000,   0.0000000000,  12.5686430152)


Analysis of symmetry for initial positions (statically):
=====================================================================
 Subroutine PRICEL returns following result:
 
  LATTYP: Found a simple orthorhombic cell.
 ALAT       =     4.9149058127
 B/A-ratio  =     1.1007353143
 C/A-ratio  =     1.2786250128
  
  Lattice vectors:
  
 A1 = (   4.9149058127,   0.0000000000,   0.0000000000)
 A2 = (   0.0000000000,   5.4100103945,   0.0000000000)
 A3 = (   0.0000000000,   0.0000000000,   6.2843215076)
 
   2 primitive cells build up your supercell.
 

 Routine SETGRP: Setting up the symmetry group for a 
 simple orthorhombic supercell.


 Subroutine GETGRP returns: Found  4 space group operations
 (whereof  2 operations were pure point group operations)
 out of a pool of  8 trial point group operations.


The static configuration has the point symmetry C_1h.
 The point group associated with its full space group is C_2v.


Analysis of symmetry for dynamics (positions and initial velocities):
=====================================================================
 Subroutine PRICEL returns following result:
 
  LATTYP: Found a simple orthorhombic cell.
 ALAT       =     4.9149058127
 B/A-ratio  =     1.1007353143
 C/A-ratio  =     1.2786250128
  
  Lattice vectors:
  
 A1 = (   4.9149058127,   0.0000000000,   0.0000000000)
 A2 = (   0.0000000000,   5.4100103945,   0.0000000000)
 A3 = (   0.0000000000,   0.0000000000,   6.2843215076)
 
   2 primitive cells build up your supercell.
 

 Routine SETGRP: Setting up the symmetry group for a 
 simple orthorhombic supercell.


 Subroutine GETGRP returns: Found  4 space group operations
 (whereof  2 operations were pure point group operations)
 out of a pool of  8 trial point group operations.


The dynamic configuration has the point symmetry C_1h.
 The point group associated with its full space group is C_2v.


Analysis of structural, dynamic, and magnetic symmetry:
=====================================================================
 Subroutine PRICEL returns following result:
 
  LATTYP: Found a simple orthorhombic cell.
 ALAT       =     4.9149058127
 B/A-ratio  =     1.1007353143
 C/A-ratio  =     1.2786250128
  
  Lattice vectors:
  
 A1 = (   4.9149058127,   0.0000000000,   0.0000000000)
 A2 = (   0.0000000000,   5.4100103945,   0.0000000000)
 A3 = (   0.0000000000,   0.0000000000,   6.2843215076)
 
   2 primitive cells build up your supercell.
 

 Routine SETGRP: Setting up the symmetry group for a 
 simple orthorhombic supercell.


 Subroutine GETGRP returns: Found  4 space group operations
 (whereof  2 operations were pure point group operations)
 out of a pool of  8 trial point group operations.


The magnetic configuration has the point symmetry C_1h.
 The point group associated with its full space group is C_2v.


 Subroutine INISYM returns: Found  4 space group operations
 (whereof  2 operations are pure point group operations),
 and found     2 'primitive' translations

 
 
 KPOINTS: KPOINTS created by Atomic Simulation Env

Automatic generation of k-mesh.
Space group operators:
 irot       det(A)        alpha          n_x          n_y          n_z        tau_x        tau_y        tau_z
    1     1.000000     0.000000     1.000000     0.000000     0.000000     0.000000     0.000000     0.000000
    2    -1.000000   180.000000    -0.000000    -0.000000     1.000000     0.000000     0.000000     0.000000
    3    -1.000000   180.000000     0.000000     1.000000     0.000000     0.500000     0.000000     0.250000
    4     1.000000   180.000000     1.000000    -0.000000     0.000000     0.500000     0.000000     0.250000
 
 Subroutine IBZKPT returns following result:
 ===========================================
 
 Found     18 irreducible k-points:
 
 Following reciprocal coordinates:
            Coordinates               Weight
  0.000000  0.000000  0.000000      1.000000
  0.250000 -0.000000  0.000000      2.000000
  0.500000 -0.000000  0.000000      1.000000
  0.000000  0.250000  0.000000      2.000000
  0.250000  0.250000  0.000000      4.000000
  0.500000  0.250000  0.000000      2.000000
  0.000000  0.500000  0.000000      1.000000
  0.250000  0.500000  0.000000      2.000000
  0.500000  0.500000  0.000000      1.000000
 -0.000000  0.000000  0.333333      2.000000
  0.250000 -0.000000  0.333333      4.000000
  0.500000  0.000000  0.333333      2.000000
 -0.000000  0.250000  0.333333      4.000000
  0.250000  0.250000  0.333333      8.000000
  0.500000  0.250000  0.333333      4.000000
 -0.000000  0.500000  0.333333      2.000000
  0.250000  0.500000  0.333333      4.000000
  0.500000  0.500000  0.333333      2.000000
 
 Following cartesian coordinates:
            Coordinates               Weight
  0.000000  0.000000  0.000000      1.000000
  0.050866 -0.000000  0.000000      2.000000
  0.101731 -0.000000  0.000000      1.000000
  0.000000  0.046211  0.000000      2.000000
  0.050866  0.046211  0.000000      4.000000
  0.101731  0.046211  0.000000      2.000000
  0.000000  0.092421  0.000000      1.000000
  0.050866  0.092421  0.000000      2.000000
  0.101731  0.092421  0.000000      1.000000
 -0.000000 -0.000000  0.026521      2.000000
  0.050866 -0.000000  0.026521      4.000000
  0.101731 -0.000000  0.026521      2.000000
 -0.000000  0.046211  0.026521      4.000000
  0.050866  0.046211  0.026521      8.000000
  0.101731  0.046211  0.026521      4.000000
 -0.000000  0.092421  0.026521      2.000000
  0.050866  0.092421  0.026521      4.000000
  0.101731  0.092421  0.026521      2.000000
 


--------------------------------------------------------------------------------------------------------




 Dimension of arrays:
   k-points           NKPTS =     18   k-points in BZ     NKDIM =     18   number of bands    NBANDS=    104
   number of dos      NEDOS =    301   number of ions     NIONS =     32
   non local maximal  LDIM  =      6   non local SUM 2l+1 LMDIM =     18
   total plane-waves  NPLWV =  76800
   max r-space proj   IRMAX =   3706   max aug-charges    IRDMAX=  14134
   dimension x,y,z NGX =    30 NGY =   32 NGZ =   80
   dimension x,y,z NGXF=    60 NGYF=   64 NGZF=  160
   support grid    NGXF=    60 NGYF=   64 NGZF=  160
   ions per type =              12   4  16
 NGX,Y,Z   is equivalent  to a cutoff of  10.15,  9.83, 10.58 a.u.
 NGXF,Y,Z  is equivalent  to a cutoff of  20.29, 19.67, 21.16 a.u.


 I would recommend the setting:
   dimension x,y,z NGX =    29 NGY =   32 NGZ =   75
 SYSTEM =  unknown system                          
 POSCAR =  Li  V  O                                

 Startparameter for this run:
   NWRITE =      2    write-flag & timer
   PREC   = normal    normal or accurate (medium, high low for compatibility)
   ISTART =      0    job   : 0-new  1-cont  2-samecut
   ICHARG =      2    charge: 1-file 2-atom 10-const
   ISPIN  =      2    spin polarized calculation?
   LNONCOLLINEAR =      F non collinear calculations
   LSORBIT =      F    spin-orbit coupling
   INIWAV =      1    electr: 0-lowe 1-rand  2-diag
   LASPH  =      F    aspherical Exc in radial PAW
   METAGGA=      F    non-selfconsistent MetaGGA calc.

 Electronic Relaxation 1
   ENCUT  =  600.0 eV  44.10 Ry    6.64 a.u.   9.82 10.81 25.10*2*pi/ulx,y,z
   ENINI  =  600.0     initial cutoff
   ENAUG  =  605.4 eV  augmentation charge cutoff
   NELM   =    500;   NELMIN=  2; NELMDL=-12     # of ELM steps 
   EDIFF  = 0.1E-05   stopping-criterion for ELM
   LREAL  =      T    real-space projection
   NLSPLINE    = F    spline interpolate recip. space projectors
   LCOMPAT=      F    compatible to vasp.4.4
   GGA_COMPAT  = T    GGA compatible to vasp.4.4-vasp.4.6
   LMAXPAW     = -100 max onsite density
   LMAXMIX     =    4 max onsite mixed and CHGCAR
   VOSKOWN=      0    Vosko Wilk Nusair interpolation
   ROPT   =   -0.00050  -0.00050  -0.00050
 Ionic relaxation
   EDIFFG = -.1E-01   stopping-criterion for IOM
   NSW    =      0    number of steps for IOM
   NBLOCK =      1;   KBLOCK =      1    inner block; outer block 
   IBRION =     -1    ionic relax: 0-MD 1-quasi-New 2-CG
   NFREE  =      0    steps in history (QN), initial steepest desc. (CG)
   ISIF   =      2    stress and relaxation
   IWAVPR =     10    prediction:  0-non 1-charg 2-wave 3-comb
   ISYM   =      2    0-nonsym 1-usesym 2-fastsym
   LCORR  =      T    Harris-Foulkes like correction to forces

   POTIM  = 0.5000    time-step for ionic-motion
   TEIN   =    0.0    initial temperature
   TEBEG  =    0.0;   TEEND  =   0.0 temperature during run
   SMASS  =  -3.00    Nose mass-parameter (am)
   estimated Nose-frequenzy (Omega)   =  0.10E-29 period in steps =****** mass=  -0.552E-27a.u.
   SCALEE = 1.0000    scale energy and forces
   NPACO  =    256;   APACO  = 16.0  distance and # of slots for P.C.
   PSTRESS=    0.0 pullay stress

  Mass of Ions in am
   POMASS =   7.01 50.94 16.00
  Ionic Valenz
   ZVAL   =   1.00  5.00  6.00
  Atomic Wigner-Seitz radii
   RWIGS  =  -1.00 -1.00 -1.00
  virtual crystal weights 
   VCA    =   1.00  1.00  1.00
   NELECT =     128.0000    total number of electrons
   NUPDOWN=      -1.0000    fix difference up-down

 DOS related values:
   EMIN   =  10.00;   EMAX   =-10.00  energy-range for DOS
   EFERMI =   0.00
   ISMEAR =     0;   SIGMA  =   0.03  broadening in eV -4-tet -1-fermi 0-gaus

 Electronic relaxation 2 (details)
   IALGO  =     48    algorithm
   LDIAG  =      T    sub-space diagonalisation (order eigenvalues)
   LSUBROT=      F    optimize rotation matrix (better conditioning)
   TURBO    =      0    0=normal 1=particle mesh
   IRESTART =      0    0=no restart 2=restart with 2 vectors
   NREBOOT  =      0    no. of reboots
   NMIN     =      0    reboot dimension
   EREF     =   0.00    reference energy to select bands
   IMIX   =      4    mixing-type and parameters
     AMIX     =   0.40;   BMIX     =  1.00
     AMIX_MAG =   1.60;   BMIX_MAG =  1.00
     AMIN     =   0.10
     WC   =   100.;   INIMIX=   1;  MIXPRE=   1;  MAXMIX= -45

 Intra band minimization:
   WEIMIN = 0.0000     energy-eigenvalue tresh-hold
   EBREAK =  0.24E-08  absolut break condition
   DEPER  =   0.30     relativ break condition  

   TIME   =   0.40     timestep for ELM

  volume/ion in A,a.u.               =      10.44        70.48
  Fermi-wavevector in a.u.,A,eV,Ry     =   1.188897  2.246690 19.231512  1.413476
  Thomas-Fermi vector in A             =   2.325016
 
 Write flags
   LWAVE  =      F    write WAVECAR
   LCHARG =      F    write CHGCAR
   LVTOT  =      F    write LOCPOT, total local potential
   LVHAR  =      F    write LOCPOT, Hartree potential only
   LELF   =      F    write electronic localiz. function (ELF)
   LORBIT =      0    0 simple, 1 ext, 2 COOP (PROOUT)


 Dipole corrections
   LMONO  =      F    monopole corrections only (constant potential shift)
   LDIPOL =      F    correct potential (dipole corrections)
   IDIPOL =      0    1-x, 2-y, 3-z, 4-all directions 
   EPSILON=  1.0000000 bulk dielectric constant

 LDA+U is selected, type is set to LDAUTYPE =  2
   angular momentum for each species LDAUL =    -1    2   -1
   U (eV)           for each species LDAUU =   0.0  3.0  0.0
   J (eV)           for each species LDAUJ =   0.0  0.0  0.0
 Exchange correlation treatment:
   GGA     =    PE    GGA type
   LEXCH   =     8    internal setting for exchange type
   VOSKOWN=      0    Vosko Wilk Nusair interpolation
   LHFCALC =     F    Hartree Fock is set to
   LHFONE  =     F    Hartree Fock one center treatment
   AEXX    =    0.0000 exact exchange contribution

 Linear response parameters
   LEPSILON=     F    determine dielectric tensor
   LRPA    =     F    only Hartree local field effects (RPA)
   LNABLA  =     F    use nabla operator in PAW spheres
   LVEL    =     F    velocity operator in full k-point grid
   LINTERFAST=   F  fast interpolation
   KINTER  =     0    interpolate to denser k-point grid
   CSHIFT  =0.1000    complex shift for real part using Kramers Kronig
   OMEGAMAX=  -1.0    maximum frequency
   DEG_THRESHOLD= 0.2000000E-02 threshold for treating states as degnerate
   RTIME   =    0.100 relaxation time in fs

 Orbital magnetization related:
   ORBITALMAG=     F  switch on orbital magnetization
   LCHIMAG   =     F  perturbation theory with respect to B field
   DQ        =  0.001000  dq finite difference perturbation B field



--------------------------------------------------------------------------------------------------------


 Static calculation
 charge density and potential will be updated during run
 spin polarized calculation
 RMM-DIIS sequential band-by-band
 perform sub-space diagonalisation
    before iterative eigenvector-optimisation
 modified Broyden-mixing scheme, WC =      100.0
 initial mixing is a Kerker type mixing with AMIX =  0.4000 and BMIX =      1.0000
 Hartree-type preconditioning will be used
 using additional bands           40
 real space projection scheme for non local part
 use partial core corrections
 calculate Harris-corrections to forces 
   (improved forces if not selfconsistent)
 use gradient corrections 
 use of overlap-Matrix (Vanderbilt PP)
 Gauss-broadening in eV      SIGMA  =   0.03


--------------------------------------------------------------------------------------------------------


  energy-cutoff  :      600.00
  volume of cell :      334.20
      direct lattice vectors                 reciprocal lattice vectors
     4.914905813  0.000000000  0.000000000     0.203462699 -0.000000000  0.000000000
     0.000000000  5.410010394  0.000000000     0.000000000  0.184842528  0.000000000
     0.000000000  0.000000000 12.568643015    -0.000000000 -0.000000000  0.079563084

  length of vectors
     4.914905813  5.410010394 12.568643015     0.203462699  0.184842528  0.079563084


 
 k-points in units of 2pi/SCALE and weight: KPOINTS created by Atomic Simulation Env
   0.00000000  0.00000000  0.00000000       0.021
   0.05086567 -0.00000000  0.00000000       0.042
   0.10173135 -0.00000000  0.00000000       0.021
   0.00000000  0.04621063  0.00000000       0.042
   0.05086567  0.04621063  0.00000000       0.083
   0.10173135  0.04621063  0.00000000       0.042
   0.00000000  0.09242126  0.00000000       0.021
   0.05086567  0.09242126  0.00000000       0.042
   0.10173135  0.09242126  0.00000000       0.021
  -0.00000000 -0.00000000  0.02652103       0.042
   0.05086567 -0.00000000  0.02652103       0.083
   0.10173135 -0.00000000  0.02652103       0.042
  -0.00000000  0.04621063  0.02652103       0.083
   0.05086567  0.04621063  0.02652103       0.167
   0.10173135  0.04621063  0.02652103       0.083
  -0.00000000  0.09242126  0.02652103       0.042
   0.05086567  0.09242126  0.02652103       0.083
   0.10173135  0.09242126  0.02652103       0.042
 
 k-points in reciprocal lattice and weights: KPOINTS created by Atomic Simulation Env
   0.00000000  0.00000000  0.00000000       0.021
   0.25000000 -0.00000000  0.00000000       0.042
   0.50000000 -0.00000000  0.00000000       0.021
   0.00000000  0.25000000  0.00000000       0.042
   0.25000000  0.25000000  0.00000000       0.083
   0.50000000  0.25000000  0.00000000       0.042
   0.00000000  0.50000000  0.00000000       0.021
   0.25000000  0.50000000  0.00000000       0.042
   0.50000000  0.50000000  0.00000000       0.021
  -0.00000000  0.00000000  0.33333333       0.042
   0.25000000 -0.00000000  0.33333333       0.083
   0.50000000  0.00000000  0.33333333       0.042
  -0.00000000  0.25000000  0.33333333       0.083
   0.25000000  0.25000000  0.33333333       0.167
   0.50000000  0.25000000  0.33333333       0.083
  -0.00000000  0.50000000  0.33333333       0.042
   0.25000000  0.50000000  0.33333333       0.083
   0.50000000  0.50000000  0.33333333       0.042
 
 position of ions in fractional coordinates (direct lattice) 
   0.00990806  0.66747354  0.12371839
   0.50990806  0.33252646  0.12628161
   0.50990806  0.33252646  0.37371839
   0.00990806  0.66747354  0.37628161
   0.01055258  0.16865862  0.25000000
   0.51055258  0.83134138  0.00000000
   0.00990806  0.66747354  0.62371839
   0.50990806  0.33252646  0.62628161
   0.50990806  0.33252646  0.87371839
   0.00990806  0.66747354  0.87628161
   0.01055258  0.16865862  0.75000000
   0.51055258  0.83134138  0.50000000
   0.00176585  0.16946502  0.00000000
   0.50176585  0.83053498  0.25000000
   0.00176585  0.16946502  0.50000000
   0.50176585  0.83053498  0.75000000
   0.11186377  0.32159740  0.11394486
   0.64951606  0.17243990  0.00000000
   0.11186377  0.32159740  0.38605514
   0.61186377  0.67840260  0.13605514
   0.61186377  0.67840260  0.36394486
   0.61041787  0.13579217  0.25000000
   0.11041787  0.86420783  0.00000000
   0.14951606  0.82756010  0.25000000
   0.11186377  0.32159740  0.61394486
   0.64951606  0.17243990  0.50000000
   0.11186377  0.32159740  0.88605514
   0.61186377  0.67840260  0.63605514
   0.61186377  0.67840260  0.86394486
   0.61041787  0.13579217  0.75000000
   0.11041787  0.86420783  0.50000000
   0.14951606  0.82756010  0.75000000
 
 position of ions in cartesian coordinates  (Angst):
   0.04869716  3.61103880  1.55497225
   2.50615007  1.79897160  1.58718850
   2.50615007  1.79897160  4.69713300
   0.04869716  3.61103880  4.72934926
   0.05186494  0.91244491  3.14216075
   2.50931785  4.49756548  0.00000000
   0.04869716  3.61103880  7.83929376
   2.50615007  1.79897160  7.87151001
   2.50615007  1.79897160 10.98145451
   0.04869716  3.61103880 11.01367076
   0.05186494  0.91244491  9.42648226
   2.50931785  4.49756548  6.28432151
   0.00867898  0.91680750  0.00000000
   2.46613189  4.49320290  3.14216075
   0.00867898  0.91680750  6.28432151
   2.46613189  4.49320290  9.42648226
   0.54979987  1.73984527  1.43213221
   3.19231026  0.93290165  0.00000000
   0.54979987  1.73984527  4.85218930
   3.00725278  3.67016513  1.71002854
   3.00725278  3.67016513  4.57429296
   3.00014632  0.73463706  3.14216075
   0.54269341  4.67537333  0.00000000
   0.73485736  4.47710874  3.14216075
   0.54979987  1.73984527  7.71645372
   3.19231026  0.93290165  6.28432151
   0.54979987  1.73984527 11.13651080
   3.00725278  3.67016513  7.99435005
   3.00725278  3.67016513 10.85861447
   3.00014632  0.73463706  9.42648226
   0.54269341  4.67537333  6.28432151
   0.73485736  4.47710874  9.42648226
 


--------------------------------------------------------------------------------------------------------


 k-point  1 :   0.0000 0.0000 0.0000  plane waves:   11165
 k-point  2 :   0.2500-0.0000 0.0000  plane waves:   11142
 k-point  3 :   0.5000-0.0000 0.0000  plane waves:   11156
 k-point  4 :   0.0000 0.2500 0.0000  plane waves:   11106
 k-point  5 :   0.2500 0.2500 0.0000  plane waves:   11155
 k-point  6 :   0.5000 0.2500 0.0000  plane waves:   11170
 k-point  7 :   0.0000 0.5000 0.0000  plane waves:   11142
 k-point  8 :   0.2500 0.5000 0.0000  plane waves:   11160
 k-point  9 :   0.5000 0.5000 0.0000  plane waves:   11168
 k-point 10 :  -0.0000 0.0000 0.3333  plane waves:   11176
 k-point 11 :   0.2500-0.0000 0.3333  plane waves:   11144
 k-point 12 :   0.5000 0.0000 0.3333  plane waves:   11132
 k-point 13 :  -0.0000 0.2500 0.3333  plane waves:   11158
 k-point 14 :   0.2500 0.2500 0.3333  plane waves:   11149
 k-point 15 :   0.5000 0.2500 0.3333  plane waves:   11158
 k-point 16 :  -0.0000 0.5000 0.3333  plane waves:   11138
 k-point 17 :   0.2500 0.5000 0.3333  plane waves:   11166
 k-point 18 :   0.5000 0.5000 0.3333  plane waves:   11176

 maximum and minimum number of plane-waves per node :      1412     1373

 maximum number of plane-waves:     11176
 maximum index in each direction: 
   IXMAX=    9   IYMAX=   10   IZMAX=   25
   IXMIN=  -10   IYMIN=  -11   IZMIN=  -25

 WARNING: aliasing errors must be expected set NGX to  40 to avoid them
 WARNING: aliasing errors must be expected set NGY to  44 to avoid them
 WARNING: aliasing errors must be expected set NGZ to 102 to avoid them
 aliasing errors are usually negligible using standard VASP settings
 and one can safely disregard these warnings

 real space projection operators:
  total allocation   :       3959.28 KBytes
  max/ min on nodes  :        553.77        382.36


 parallel 3D FFT for wavefunctions:
    minimum data exchange during FFTs selected (reduces bandwidth)
 parallel 3D FFT for charge:
    minimum data exchange during FFTs selected (reduces bandwidth)


 total amount of memory used by VASP on root node    46096. kBytes
========================================================================

   base      :      30000. kBytes
   nonlr-proj:       2649. kBytes
   fftplans  :        688. kBytes
   grid      :       1733. kBytes
   one-center:        124. kBytes
   wavefun   :      10902. kBytes
 
     INWAV:  cpu time    0.0000: real time    0.0000
 Broyden mixing: mesh for mixing (old mesh)
   NGX = 19   NGY = 21   NGZ = 51
  (NGX  = 60   NGY  = 64   NGZ  =160)
  gives a total of  20349 points

 initial charge density was supplied:
 charge density of overlapping atoms calculated
 number of electron     128.0000000 magnetization      32.0000000
 keeping initial charge density in first step


--------------------------------------------------------------------------------------------------------


 Maximum index for non-local projection operator          530
 Maximum index for augmentation-charges          689 (set IRDMAX)


--------------------------------------------------------------------------------------------------------


 First call to EWALD:  gamma=   0.255
 Maximum number of real-space cells 4x 3x 2
 Maximum number of reciprocal cells 2x 2x 5

 FEWALD executed in parallel
    FEWALD:  cpu time    0.0016: real time    0.0016


----------------------------------------- Iteration    1(   1)  ---------------------------------------


    POTLOK:  cpu time    0.0166: real time    0.0170
    SETDIJ:  cpu time    0.0066: real time    0.0067
    EDDIAG:  cpu time    0.5179: real time    0.5279
  RMM-DIIS:  cpu time    0.2570: real time    0.2595
    ORTHCH:  cpu time    0.1310: real time    0.1317
       DOS:  cpu time    0.0019: real time    0.0022
    --------------------------------------------
      LOOP:  cpu time    0.9350: real time    0.9497

 eigenvalue-minimisations  :  3744
 total energy-change (2. order) : 0.1705069E+04  (-0.4527524E+04)
 number of electron     128.0000000 magnetization      32.0000000
 augmentation part      128.0000000 magnetization      32.0000000

 Free energy of the ion-electron system (eV)
  ---------------------------------------------------
  alpha Z        PSCENC =       248.93912067
  Ewald energy   TEWEN  =     -5279.31471607
  -Hartree energ DENC   =     -2401.72888540
  -exchange      EXHF   =         0.00000000
  -V(xc)+E(xc)   XCENC  =       211.70901955
  PAW double counting   =      6457.47017861    -6214.93685069
  entropy T*S    EENTRO =        -0.00804712
  eigenvalues    EBANDS =      1018.07516572
  atomic energy  EATOM  =      7664.86366482
  Solvation  Ediel_sol  =         0.00000000
  ---------------------------------------------------
  free energy    TOTEN  =      1705.06865010 eV

  energy without entropy =     1705.07669723  energy(sigma->0) =     1705.07267366


--------------------------------------------------------------------------------------------------------




----------------------------------------- Iteration    1(   2)  ---------------------------------------


    EDDIAG:  cpu time    0.4879: real time    0.4914
  RMM-DIIS:  cpu time    0.2562: real time    0.2576
    ORTHCH:  cpu time    0.1289: real time    0.1296
       DOS:  cpu time    0.0015: real time    0.0015
    --------------------------------------------
      LOOP:  cpu time    0.8757: real time    0.8946

 eigenvalue-minimisations  :  3744
 total energy-change (2. order) :-0.1205577E+04  (-0.1140725E+04)
 number of electron     128.0000000 magnetization      32.0000000
 augmentation part      128.0000000 magnetization      32.0000000

 Free energy of the ion-electron system (eV)
  ---------------------------------------------------
  alpha Z        PSCENC =       248.93912067
  Ewald energy   TEWEN  =     -5279.31471607
  -Hartree energ DENC   =     -2401.72888540
  -exchange      EXHF   =         0.00000000
  -V(xc)+E(xc)   XCENC  =       211.70901955
  PAW double counting   =      6457.47017861    -6214.93685069
  entropy T*S    EENTRO =        -0.00641844
  eigenvalues    EBANDS =      -187.50324799
  atomic energy  EATOM  =      7664.86366482
  Solvation  Ediel_sol  =         0.00000000
  ---------------------------------------------------
  free energy    TOTEN  =       499.49186507 eV

  energy without entropy =      499.49828351  energy(sigma->0) =      499.49507429


--------------------------------------------------------------------------------------------------------




----------------------------------------- Iteration    1(   3)  ---------------------------------------


    EDDIAG:  cpu time    0.4890: real time    0.4923
  RMM-DIIS:  cpu time    0.2549: real time    0.2565
    ORTHCH:  cpu time    0.1271: real time    0.1279
       DOS:  cpu time    0.0015: real time    0.0015
    --------------------------------------------
      LOOP:  cpu time    0.8739: real time    0.8921

 eigenvalue-minimisations  :  3744
 total energy-change (2. order) :-0.3748250E+03  (-0.3323954E+03)
 number of electron     128.0000000 magnetization      32.0000000
 augmentation part      128.0000000 magnetization      32.0000000

 Free energy of the ion-electron system (eV)
  ---------------------------------------------------
  alpha Z        PSCENC =       248.93912067
  Ewald energy   TEWEN  =     -5279.31471607
  -Hartree energ DENC   =     -2401.72888540
  -exchange      EXHF   =         0.00000000
  -V(xc)+E(xc)   XCENC  =       211.70901955
  PAW double counting   =      6457.47017861    -6214.93685069
  entropy T*S    EENTRO =        -0.00513332
  eigenvalues    EBANDS =      -562.32950932
  atomic energy  EATOM  =      7664.86366482
  Solvation  Ediel_sol  =         0.00000000
  ---------------------------------------------------
  free energy    TOTEN  =       124.66688886 eV

  energy without entropy =      124.67202219  energy(sigma->0) =      124.66945552


--------------------------------------------------------------------------------------------------------




----------------------------------------- Iteration    1(   4)  ---------------------------------------


    EDDIAG:  cpu time    0.5002: real time    0.5037
  RMM-DIIS:  cpu time    0.2539: real time    0.2555
    ORTHCH:  cpu time    0.1265: real time    0.1272
       DOS:  cpu time    0.0005: real time    0.0005
    --------------------------------------------
      LOOP:  cpu time    0.8824: real time    0.9015

 eigenvalue-minimisations  :  3744
 total energy-change (2. order) :-0.1878024E+03  (-0.1087779E+03)
 number of electron     128.0000000 magnetization      32.0000000
 augmentation part      128.0000000 magnetization      32.0000000

 Free energy of the ion-electron system (eV)
  ---------------------------------------------------
  alpha Z        PSCENC =       248.93912067
  Ewald energy   TEWEN  =     -5279.31471607
  -Hartree energ DENC   =     -2401.72888540
  -exchange      EXHF   =         0.00000000
  -V(xc)+E(xc)   XCENC  =       211.70901955
  PAW double counting   =      6457.47017861    -6214.93685069
  entropy T*S    EENTRO =        -0.00000000
  eigenvalues    EBANDS =      -750.13705828
  atomic energy  EATOM  =      7664.86366482
  Solvation  Ediel_sol  =         0.00000000
  ---------------------------------------------------
  free energy    TOTEN  =       -63.13552677 eV

  energy without entropy =      -63.13552677  energy(sigma->0) =      -63.13552677


--------------------------------------------------------------------------------------------------------




----------------------------------------- Iteration    1(   5)  ---------------------------------------


    EDDIAG:  cpu time    0.4825: real time    0.4859
  RMM-DIIS:  cpu time    0.2573: real time    0.2587
    ORTHCH:  cpu time    0.1274: real time    0.1281
       DOS:  cpu time    0.0005: real time    0.0005
    --------------------------------------------
      LOOP:  cpu time    0.8689: real time    0.8873

 eigenvalue-minimisations  :  3744
 total energy-change (2. order) :-0.9813080E+02  (-0.6913494E+02)
 number of electron     128.0000000 magnetization      32.0000000
 augmentation part      128.0000000 magnetization      32.0000000

 Free energy of the ion-electron system (eV)
  ---------------------------------------------------
  alpha Z        PSCENC =       248.93912067
  Ewald energy   TEWEN  =     -5279.31471607
  -Hartree energ DENC   =     -2401.72888540
  -exchange      EXHF   =         0.00000000
  -V(xc)+E(xc)   XCENC  =       211.70901955
  PAW double counting   =      6457.47017861    -6214.93685069
  entropy T*S    EENTRO =        -0.00000000
  eigenvalues    EBANDS =      -848.26786317
  atomic energy  EATOM  =      7664.86366482
  Solvation  Ediel_sol  =         0.00000000
  ---------------------------------------------------
  free energy    TOTEN  =      -161.26633166 eV

  energy without entropy =     -161.26633166  energy(sigma->0) =     -161.26633166


--------------------------------------------------------------------------------------------------------




----------------------------------------- Iteration    1(   6)  ---------------------------------------


    EDDIAG:  cpu time    0.4856: real time    0.4889
  RMM-DIIS:  cpu time    0.2535: real time    0.2550
    ORTHCH:  cpu time    0.1258: real time    0.1265
       DOS:  cpu time    0.0005: real time    0.0005
    --------------------------------------------
      LOOP:  cpu time    0.8669: real time    0.8849

 eigenvalue-minimisations  :  3744
 total energy-change (2. order) :-0.4314556E+02  (-0.2827175E+02)
 number of electron     128.0000000 magnetization      32.0000000
 augmentation part      128.0000000 magnetization      32.0000000

 Free energy of the ion-electron system (eV)
  ---------------------------------------------------
  alpha Z        PSCENC =       248.93912067
  Ewald energy   TEWEN  =     -5279.31471607
  -Hartree energ DENC   =     -2401.72888540
  -exchange      EXHF   =         0.00000000
  -V(xc)+E(xc)   XCENC  =       211.70901955
  PAW double counting   =      6457.47017861    -6214.93685069
  entropy T*S    EENTRO =        -0.00000000
  eigenvalues    EBANDS =      -891.41342718
  atomic energy  EATOM  =      7664.86366482
  Solvation  Ediel_sol  =         0.00000000
  ---------------------------------------------------
  free energy    TOTEN  =      -204.41189567 eV

  energy without entropy =     -204.41189567  energy(sigma->0) =     -204.41189567


--------------------------------------------------------------------------------------------------------




----------------------------------------- Iteration    1(   7)  ---------------------------------------


    EDDIAG:  cpu time    0.4912: real time    0.4944
  RMM-DIIS:  cpu time    0.2567: real time    0.2582
    ORTHCH:  cpu time    0.1267: real time    0.1273
       DOS:  cpu time    0.0005: real time    0.0005
    --------------------------------------------
      LOOP:  cpu time    0.8762: real time    0.8941

 eigenvalue-minimisations  :  3744
 total energy-change (2. order) :-0.2329797E+02  (-0.1690753E+02)
 number of electron     128.0000000 magnetization      32.0000000
 augmentation part      128.0000000 magnetization      32.0000000

 Free energy of the ion-electron system (eV)
  ---------------------------------------------------
  alpha Z        PSCENC =       248.93912067
  Ewald energy   TEWEN  =     -5279.31471607
  -Hartree energ DENC   =     -2401.72888540
  -exchange      EXHF   =         0.00000000
  -V(xc)+E(xc)   XCENC  =       211.70901955
  PAW double counting   =      6457.47017861    -6214.93685069
  entropy T*S    EENTRO =        -0.00000000
  eigenvalues    EBANDS =      -914.71139644
  atomic energy  EATOM  =      7664.86366482
  Solvation  Ediel_sol  =         0.00000000
  ---------------------------------------------------
  free energy    TOTEN  =      -227.70986494 eV

  energy without entropy =     -227.70986494  energy(sigma->0) =     -227.70986494


--------------------------------------------------------------------------------------------------------




----------------------------------------- Iteration    1(   8)  ---------------------------------------


    EDDIAG:  cpu time    0.4825: real time    0.4858
  RMM-DIIS:  cpu time    0.2537: real time    0.2551
    ORTHCH:  cpu time    0.1271: real time    0.1279
       DOS:  cpu time    0.0005: real time    0.0005
    --------------------------------------------
      LOOP:  cpu time    0.8651: real time    0.8829

 eigenvalue-minimisations  :  3744
 total energy-change (2. order) :-0.1054409E+02  (-0.7349977E+01)
 number of electron     128.0000000 magnetization      32.0000000
 augmentation part      128.0000000 magnetization      32.0000000

 Free energy of the ion-electron system (eV)
  ---------------------------------------------------
  alpha Z        PSCENC =       248.93912067
  Ewald energy   TEWEN  =     -5279.31471607
  -Hartree energ DENC   =     -2401.72888540
  -exchange      EXHF   =         0.00000000
  -V(xc)+E(xc)   XCENC  =       211.70901955
  PAW double counting   =      6457.47017861    -6214.93685069
  entropy T*S    EENTRO =        -0.00000000
  eigenvalues    EBANDS =      -925.25548493
  atomic energy  EATOM  =      7664.86366482
  Solvation  Ediel_sol  =         0.00000000
  ---------------------------------------------------
  free energy    TOTEN  =      -238.25395342 eV

  energy without entropy =     -238.25395342  energy(sigma->0) =     -238.25395342


--------------------------------------------------------------------------------------------------------




----------------------------------------- Iteration    1(   9)  ---------------------------------------


    EDDIAG:  cpu time    0.4860: real time    0.4892
  RMM-DIIS:  cpu time    0.7731: real time    0.7796
    ORTHCH:  cpu time    0.1264: real time    0.1271
       DOS:  cpu time    0.0005: real time    0.0005
    --------------------------------------------
      LOOP:  cpu time    1.3872: real time    1.4100

 eigenvalue-minimisations  : 12455
 total energy-change (2. order) :-0.1213491E+02  (-0.1065782E+02)
 number of electron     128.0000000 magnetization      32.0000000
 augmentation part      128.0000000 magnetization      32.0000000

 Free energy of the ion-electron system (eV)
  ---------------------------------------------------
  alpha Z        PSCENC =       248.93912067
  Ewald energy   TEWEN  =     -5279.31471607
  -Hartree energ DENC   =     -2401.72888540
  -exchange      EXHF   =         0.00000000
  -V(xc)+E(xc)   XCENC  =       211.70901955
  PAW double counting   =      6457.47017861    -6214.93685069
  entropy T*S    EENTRO =        -0.00000000
  eigenvalues    EBANDS =      -937.39039497
  atomic energy  EATOM  =      7664.86366482
  Solvation  Ediel_sol  =         0.00000000
  ---------------------------------------------------
  free energy    TOTEN  =      -250.38886347 eV

  energy without entropy =     -250.38886347  energy(sigma->0) =     -250.38886347


--------------------------------------------------------------------------------------------------------




----------------------------------------- Iteration    1(  10)  ---------------------------------------


    EDDIAG:  cpu time    0.4902: real time    0.4937
  RMM-DIIS:  cpu time    0.7742: real time    0.7789
    ORTHCH:  cpu time    0.1256: real time    0.1263
       DOS:  cpu time    0.0006: real time    0.0006
    --------------------------------------------
      LOOP:  cpu time    1.3917: real time    1.4126

 eigenvalue-minimisations  : 12649
 total energy-change (2. order) :-0.2002827E+00  (-0.1393721E+00)
 number of electron     128.0000000 magnetization      32.0000000
 augmentation part      128.0000000 magnetization      32.0000000

 Free energy of the ion-electron system (eV)
  ---------------------------------------------------
  alpha Z        PSCENC =       248.93912067
  Ewald energy   TEWEN  =     -5279.31471607
  -Hartree energ DENC   =     -2401.72888540
  -exchange      EXHF   =         0.00000000
  -V(xc)+E(xc)   XCENC  =       211.70901955
  PAW double counting   =      6457.47017861    -6214.93685069
  entropy T*S    EENTRO =        -0.00000000
  eigenvalues    EBANDS =      -937.59067762
  atomic energy  EATOM  =      7664.86366482
  Solvation  Ediel_sol  =         0.00000000
  ---------------------------------------------------
  free energy    TOTEN  =      -250.58914612 eV

  energy without entropy =     -250.58914612  energy(sigma->0) =     -250.58914612


--------------------------------------------------------------------------------------------------------




----------------------------------------- Iteration    1(  11)  ---------------------------------------


    EDDIAG:  cpu time    0.4807: real time    0.4842
  RMM-DIIS:  cpu time    0.7769: real time    0.7817
    ORTHCH:  cpu time    0.1254: real time    0.1261
       DOS:  cpu time    0.0005: real time    0.0005
    --------------------------------------------
      LOOP:  cpu time    1.3848: real time    1.4062

 eigenvalue-minimisations  : 12625
 total energy-change (2. order) :-0.4937821E-02  (-0.3340320E-02)
 number of electron     128.0000000 magnetization      32.0000000
 augmentation part      128.0000000 magnetization      32.0000000

 Free energy of the ion-electron system (eV)
  ---------------------------------------------------
  alpha Z        PSCENC =       248.93912067
  Ewald energy   TEWEN  =     -5279.31471607
  -Hartree energ DENC   =     -2401.72888540
  -exchange      EXHF   =         0.00000000
  -V(xc)+E(xc)   XCENC  =       211.70901955
  PAW double counting   =      6457.47017861    -6214.93685069
  entropy T*S    EENTRO =        -0.00000000
  eigenvalues    EBANDS =      -937.59561544
  atomic energy  EATOM  =      7664.86366482
  Solvation  Ediel_sol  =         0.00000000
  ---------------------------------------------------
  free energy    TOTEN  =      -250.59408394 eV

  energy without entropy =     -250.59408394  energy(sigma->0) =     -250.59408394


--------------------------------------------------------------------------------------------------------




----------------------------------------- Iteration    1(  12)  ---------------------------------------


    EDDIAG:  cpu time    0.4808: real time    0.4841
  RMM-DIIS:  cpu time    0.7189: real time    0.7236
    ORTHCH:  cpu time    0.1248: real time    0.1255
       DOS:  cpu time    0.0005: real time    0.0005
    CHARGE:  cpu time    0.0468: real time    0.0475
    MIXING:  cpu time    0.0014: real time    0.0018
    --------------------------------------------
      LOOP:  cpu time    1.3746: real time    1.3970

 eigenvalue-minimisations  : 11749
 total energy-change (2. order) :-0.2165764E-03  (-0.1855935E-03)
 number of electron     128.0000159 magnetization      21.7629622
 augmentation part       14.9208769 magnetization      21.8286583

 Broyden mixing:
  rms(total) = 0.10011E+02    rms(broyden)= 0.10011E+02
  rms(prec ) = 0.10679E+02
  weight for this iteration     100.00

 Free energy of the ion-electron system (eV)
  ---------------------------------------------------
  alpha Z        PSCENC =       248.93912067
  Ewald energy   TEWEN  =     -5279.31471607
  -Hartree energ DENC   =     -2401.72888540
  -exchange      EXHF   =         0.00000000
  -V(xc)+E(xc)   XCENC  =       211.70901955
  PAW double counting   =      6457.47017861    -6214.93685069
  entropy T*S    EENTRO =        -0.00000000
  eigenvalues    EBANDS =      -937.59583202
  atomic energy  EATOM  =      7664.86366482
  Solvation  Ediel_sol  =         0.00000000
  ---------------------------------------------------
  free energy    TOTEN  =      -250.59430052 eV

  energy without entropy =     -250.59430052  energy(sigma->0) =     -250.59430052


--------------------------------------------------------------------------------------------------------




----------------------------------------- Iteration    1(  13)  ---------------------------------------


    POTLOK:  cpu time    0.0119: real time    0.0120
    SETDIJ:  cpu time    0.0045: real time    0.0046
    EDDIAG:  cpu time    0.4833: real time    0.4867
  RMM-DIIS:  cpu time    0.5987: real time    0.6022
    ORTHCH:  cpu time    0.1264: real time    0.1271
       DOS:  cpu time    0.0005: real time    0.0005
    CHARGE:  cpu time    0.0455: real time    0.0458
    MIXING:  cpu time    0.0005: real time    0.0005
    --------------------------------------------
      LOOP:  cpu time    1.2728: real time    1.2930

 eigenvalue-minimisations  :  9718
 total energy-change (2. order) : 0.6597827E+02  (-0.3538810E+02)
 number of electron     128.0000121 magnetization      16.8377544
 augmentation part       22.4563413 magnetization      15.6390507

 Broyden mixing:
  rms(total) = 0.42598E+01    rms(broyden)= 0.42590E+01
  rms(prec ) = 0.54337E+01
  weight for this iteration     100.00

 eigenvalues of (default mixing * dielectric matrix)
  average eigenvalue GAMMA=   0.7895
  0.7895

 Free energy of the ion-electron system (eV)
  ---------------------------------------------------
  alpha Z        PSCENC =       248.93912067
  Ewald energy   TEWEN  =     -5279.31471607
  -Hartree energ DENC   =     -2692.42122827
  -exchange      EXHF   =         0.00000000
  -V(xc)+E(xc)   XCENC  =       251.12509229
  PAW double counting   =      8346.48929050    -8106.29883294
  entropy T*S    EENTRO =        -0.00000000
  eigenvalues    EBANDS =      -617.99841809
  atomic energy  EATOM  =      7664.86366482
  Solvation  Ediel_sol  =         0.00000000
  ---------------------------------------------------
  free energy    TOTEN  =      -184.61602709 eV

  energy without entropy =     -184.61602709  energy(sigma->0) =     -184.61602709


--------------------------------------------------------------------------------------------------------




----------------------------------------- Iteration    1(  14)  ---------------------------------------


    POTLOK:  cpu time    0.0110: real time    0.0111
    SETDIJ:  cpu time    0.0045: real time    0.0045
    EDDIAG:  cpu time    0.4838: real time    0.4868
  RMM-DIIS:  cpu time    0.5988: real time    0.6024
    ORTHCH:  cpu time    0.1256: real time    0.1263
       DOS:  cpu time    0.0005: real time    0.0005
    CHARGE:  cpu time    0.0450: real time    0.0452
    MIXING:  cpu time    0.0005: real time    0.0005
    --------------------------------------------
      LOOP:  cpu time    1.2712: real time    1.2915

 eigenvalue-minimisations  :  9758
 total energy-change (2. order) :-0.1246834E+02  (-0.5802814E+01)
 number of electron     128.0000141 magnetization       9.2624119
 augmentation part       14.1492543 magnetization       8.4012408

 Broyden mixing:
  rms(total) = 0.53016E+01    rms(broyden)= 0.53014E+01
  rms(prec ) = 0.57728E+01
  weight for this iteration     100.00

 eigenvalues of (default mixing * dielectric matrix)
  average eigenvalue GAMMA=   0.7811
  1.2045  0.3578

 Free energy of the ion-electron system (eV)
  ---------------------------------------------------
  alpha Z        PSCENC =       248.93912067
  Ewald energy   TEWEN  =     -5279.31471607
  -Hartree energ DENC   =     -2630.30738242
  -exchange      EXHF   =         0.00000000
  -V(xc)+E(xc)   XCENC  =       233.77673450
  PAW double counting   =      8745.45204493    -8513.47470211
  entropy T*S    EENTRO =        -0.00000000
  eigenvalues    EBANDS =      -667.01913614
  atomic energy  EATOM  =      7664.86366482
  Solvation  Ediel_sol  =         0.00000000
  ---------------------------------------------------
  free energy    TOTEN  =      -197.08437181 eV

  energy without entropy =     -197.08437181  energy(sigma->0) =     -197.08437181


--------------------------------------------------------------------------------------------------------




----------------------------------------- Iteration    1(  15)  ---------------------------------------


    POTLOK:  cpu time    0.0116: real time    0.0116
    SETDIJ:  cpu time    0.0045: real time    0.0045
    EDDIAG:  cpu time    0.4800: real time    0.4835
  RMM-DIIS:  cpu time    0.5420: real time    0.5454
    ORTHCH:  cpu time    0.1260: real time    0.1267
       DOS:  cpu time    0.0005: real time    0.0005
    CHARGE:  cpu time    0.0464: real time    0.0467
    MIXING:  cpu time    0.0006: real time    0.0006
    --------------------------------------------
      LOOP:  cpu time    1.2131: real time    1.2336

 eigenvalue-minimisations  :  8717
 total energy-change (2. order) : 0.1204428E+01  (-0.1788724E+01)
 number of electron     128.0000131 magnetization       5.9414835
 augmentation part       14.9593665 magnetization       5.6009855

 Broyden mixing:
  rms(total) = 0.19766E+01    rms(broyden)= 0.19765E+01
  rms(prec ) = 0.22429E+01
  weight for this iteration     100.00

 eigenvalues of (default mixing * dielectric matrix)
  average eigenvalue GAMMA=   1.0404
  0.4710  1.3252  1.3252

 Free energy of the ion-electron system (eV)
  ---------------------------------------------------
  alpha Z        PSCENC =       248.93912067
  Ewald energy   TEWEN  =     -5279.31471607
  -Hartree energ DENC   =     -2677.78306081
  -exchange      EXHF   =         0.00000000
  -V(xc)+E(xc)   XCENC  =       232.66789732
  PAW double counting   =     10019.99520704    -9787.53159442
  entropy T*S    EENTRO =        -0.00000000
  eigenvalues    EBANDS =      -617.71646221
  atomic energy  EATOM  =      7664.86366482
  Solvation  Ediel_sol  =         0.00000000
  ---------------------------------------------------
  free energy    TOTEN  =      -195.87994367 eV

  energy without entropy =     -195.87994367  energy(sigma->0) =     -195.87994367


--------------------------------------------------------------------------------------------------------




----------------------------------------- Iteration    1(  16)  ---------------------------------------


    POTLOK:  cpu time    0.0115: real time    0.0116
    SETDIJ:  cpu time    0.0045: real time    0.0045
    EDDIAG:  cpu time    0.4802: real time    0.4835
  RMM-DIIS:  cpu time    0.5494: real time    0.5526
    ORTHCH:  cpu time    0.1246: real time    0.1253
       DOS:  cpu time    0.0005: real time    0.0005
    CHARGE:  cpu time    0.0461: real time    0.0464
    MIXING:  cpu time    0.0006: real time    0.0006
    --------------------------------------------
      LOOP:  cpu time    1.2190: real time    1.2392

 eigenvalue-minimisations  :  8891
 total energy-change (2. order) :-0.1982347E+01  (-0.1335871E+01)
 number of electron     128.0000130 magnetization       5.6981418
 augmentation part       16.7923122 magnetization       5.4669620

 Broyden mixing:
  rms(total) = 0.12723E+01    rms(broyden)= 0.12722E+01
  rms(prec ) = 0.12910E+01
  weight for this iteration     100.00

 eigenvalues of (default mixing * dielectric matrix)
  average eigenvalue GAMMA=   0.9099
  1.3527  1.3527  0.4670  0.4670

 Free energy of the ion-electron system (eV)
  ---------------------------------------------------
  alpha Z        PSCENC =       248.93912067
  Ewald energy   TEWEN  =     -5279.31471607
  -Hartree energ DENC   =     -2651.92068759
  -exchange      EXHF   =         0.00000000
  -V(xc)+E(xc)   XCENC  =       229.95189218
  PAW double counting   =     10255.36980676   -10018.69447651
  entropy T*S    EENTRO =        -0.00000000
  eigenvalues    EBANDS =      -647.05689506
  atomic energy  EATOM  =      7664.86366482
  Solvation  Ediel_sol  =         0.00000000
  ---------------------------------------------------
  free energy    TOTEN  =      -197.86229080 eV

  energy without entropy =     -197.86229080  energy(sigma->0) =     -197.86229080


--------------------------------------------------------------------------------------------------------




----------------------------------------- Iteration    1(  17)  ---------------------------------------


    POTLOK:  cpu time    0.0116: real time    0.0116
    SETDIJ:  cpu time    0.0044: real time    0.0045
    EDDIAG:  cpu time    0.4840: real time    0.4876
  RMM-DIIS:  cpu time    0.6246: real time    0.6282
    ORTHCH:  cpu time    0.1253: real time    0.1261
       DOS:  cpu time    0.0006: real time    0.0006
    CHARGE:  cpu time    0.0457: real time    0.0459
    MIXING:  cpu time    0.0007: real time    0.0007
    --------------------------------------------
      LOOP:  cpu time    1.2983: real time    1.3192

 eigenvalue-minimisations  : 10173
 total energy-change (2. order) :-0.5896321E+00  (-0.1823027E+00)
 number of electron     128.0000131 magnetization       4.2780137
 augmentation part       16.4766201 magnetization       4.1448126

 Broyden mixing:
  rms(total) = 0.71457E+00    rms(broyden)= 0.71456E+00
  rms(prec ) = 0.72181E+00
  weight for this iteration     100.00

 eigenvalues of (default mixing * dielectric matrix)
  average eigenvalue GAMMA=   1.1241
  1.8381  1.8381  0.9108  0.4883  0.5454

 Free energy of the ion-electron system (eV)
  ---------------------------------------------------
  alpha Z        PSCENC =       248.93912067
  Ewald energy   TEWEN  =     -5279.31471607
  -Hartree energ DENC   =     -2647.50880526
  -exchange      EXHF   =         0.00000000
  -V(xc)+E(xc)   XCENC  =       229.35874423
  PAW double counting   =     10172.16611490    -9935.31413272
  entropy T*S    EENTRO =        -0.00000000
  eigenvalues    EBANDS =      -651.64191346
  atomic energy  EATOM  =      7664.86366482
  Solvation  Ediel_sol  =         0.00000000
  ---------------------------------------------------
  free energy    TOTEN  =      -198.45192288 eV

  energy without entropy =     -198.45192288  energy(sigma->0) =     -198.45192288


--------------------------------------------------------------------------------------------------------




----------------------------------------- Iteration    1(  18)  ---------------------------------------


    POTLOK:  cpu time    0.0110: real time    0.0111
    SETDIJ:  cpu time    0.0044: real time    0.0045
    EDDIAG:  cpu time    0.4920: real time    0.4954
  RMM-DIIS:  cpu time    0.5880: real time    0.5917
    ORTHCH:  cpu time    0.1251: real time    0.1259
       DOS:  cpu time    0.0005: real time    0.0005
    CHARGE:  cpu time    0.0457: real time    0.0459
    MIXING:  cpu time    0.0006: real time    0.0007
    --------------------------------------------
      LOOP:  cpu time    1.2690: real time    1.2900

 eigenvalue-minimisations  :  9477
 total energy-change (2. order) :-0.4546475E+00  (-0.6593304E-01)
 number of electron     128.0000133 magnetization       0.7764132
 augmentation part       16.4334686 magnetization       0.6872047

 Broyden mixing:
  rms(total) = 0.38873E+00    rms(broyden)= 0.38872E+00
  rms(prec ) = 0.41482E+00
  weight for this iteration     100.00

 eigenvalues of (default mixing * dielectric matrix)
  average eigenvalue GAMMA=   1.2205
  1.9450  1.9450  1.6205  0.4817  0.6654  0.6654

 Free energy of the ion-electron system (eV)
  ---------------------------------------------------
  alpha Z        PSCENC =       248.93912067
  Ewald energy   TEWEN  =     -5279.31471607
  -Hartree energ DENC   =     -2631.56404601
  -exchange      EXHF   =         0.00000000
  -V(xc)+E(xc)   XCENC  =       227.68797253
  PAW double counting   =      9987.45136446    -9749.77044141
  entropy T*S    EENTRO =        -0.00000000
  eigenvalues    EBANDS =      -667.19948937
  atomic energy  EATOM  =      7664.86366482
  Solvation  Ediel_sol  =         0.00000000
  ---------------------------------------------------
  free energy    TOTEN  =      -198.90657038 eV

  energy without entropy =     -198.90657038  energy(sigma->0) =     -198.90657038


--------------------------------------------------------------------------------------------------------




----------------------------------------- Iteration    1(  19)  ---------------------------------------


    POTLOK:  cpu time    0.0116: real time    0.0116
    SETDIJ:  cpu time    0.0045: real time    0.0045
    EDDIAG:  cpu time    0.4850: real time    0.4882
  RMM-DIIS:  cpu time    0.5803: real time    0.5837
    ORTHCH:  cpu time    0.1279: real time    0.1286
       DOS:  cpu time    0.0006: real time    0.0006
    CHARGE:  cpu time    0.0454: real time    0.0456
    MIXING:  cpu time    0.0007: real time    0.0007
    --------------------------------------------
      LOOP:  cpu time    1.2573: real time    1.2779

 eigenvalue-minimisations  :  9299
 total energy-change (2. order) :-0.4795661E+00  (-0.3602475E-01)
 number of electron     128.0000133 magnetization       0.2292772
 augmentation part       16.8215821 magnetization       0.1865709

 Broyden mixing:
  rms(total) = 0.18466E+00    rms(broyden)= 0.18463E+00
  rms(prec ) = 0.23446E+00
  weight for this iteration     100.00

 eigenvalues of (default mixing * dielectric matrix)
  average eigenvalue GAMMA=   1.2290
  2.7880  1.6383  1.6383  0.8589  0.4751  0.6022  0.6022

 Free energy of the ion-electron system (eV)
  ---------------------------------------------------
  alpha Z        PSCENC =       248.93912067
  Ewald energy   TEWEN  =     -5279.31471607
  -Hartree energ DENC   =     -2637.56194808
  -exchange      EXHF   =         0.00000000
  -V(xc)+E(xc)   XCENC  =       228.14577832
  PAW double counting   =     10215.98637297    -9977.72431611
  entropy T*S    EENTRO =        -0.00000000
  eigenvalues    EBANDS =      -662.72009301
  atomic energy  EATOM  =      7664.86366482
  Solvation  Ediel_sol  =         0.00000000
  ---------------------------------------------------
  free energy    TOTEN  =      -199.38613648 eV

  energy without entropy =     -199.38613648  energy(sigma->0) =     -199.38613648


--------------------------------------------------------------------------------------------------------




----------------------------------------- Iteration    1(  20)  ---------------------------------------


    POTLOK:  cpu time    0.0113: real time    0.0114
    SETDIJ:  cpu time    0.0045: real time    0.0045
    EDDIAG:  cpu time    0.4815: real time    0.4847
  RMM-DIIS:  cpu time    0.6180: real time    0.6218
    ORTHCH:  cpu time    0.1251: real time    0.1258
       DOS:  cpu time    0.0006: real time    0.0006
    CHARGE:  cpu time    0.0456: real time    0.0458
    MIXING:  cpu time    0.0008: real time    0.0008
    --------------------------------------------
      LOOP:  cpu time    1.2891: real time    1.3099

 eigenvalue-minimisations  : 10003
 total energy-change (2. order) : 0.8979692E-02  (-0.5767886E-02)
 number of electron     128.0000133 magnetization       0.1655389
 augmentation part       16.7341419 magnetization       0.1557224

 Broyden mixing:
  rms(total) = 0.10459E+00    rms(broyden)= 0.10458E+00
  rms(prec ) = 0.13509E+00
  weight for this iteration     100.00

 eigenvalues of (default mixing * dielectric matrix)
  average eigenvalue GAMMA=   1.2007
  2.8309  1.6530  1.6530  1.0179  0.6914  0.6914  0.4797  0.5882

 Free energy of the ion-electron system (eV)
  ---------------------------------------------------
  alpha Z        PSCENC =       248.93912067
  Ewald energy   TEWEN  =     -5279.31471607
  -Hartree energ DENC   =     -2640.88361075
  -exchange      EXHF   =         0.00000000
  -V(xc)+E(xc)   XCENC  =       228.28675460
  PAW double counting   =     10292.90483788   -10054.81390059
  entropy T*S    EENTRO =        -0.00000000
  eigenvalues    EBANDS =      -659.35930735
  atomic energy  EATOM  =      7664.86366482
  Solvation  Ediel_sol  =         0.00000000
  ---------------------------------------------------
  free energy    TOTEN  =      -199.37715679 eV

  energy without entropy =     -199.37715679  energy(sigma->0) =     -199.37715679


--------------------------------------------------------------------------------------------------------




----------------------------------------- Iteration    1(  21)  ---------------------------------------


    POTLOK:  cpu time    0.0110: real time    0.0110
    SETDIJ:  cpu time    0.0045: real time    0.0045
    EDDIAG:  cpu time    0.4837: real time    0.4871
  RMM-DIIS:  cpu time    0.6062: real time    0.6100
    ORTHCH:  cpu time    0.1254: real time    0.1261
       DOS:  cpu time    0.0005: real time    0.0005
    CHARGE:  cpu time    0.0452: real time    0.0455
    MIXING:  cpu time    0.0009: real time    0.0009
    --------------------------------------------
      LOOP:  cpu time    1.2788: real time    1.2997

 eigenvalue-minimisations  :  9824
 total energy-change (2. order) : 0.1672632E-01  (-0.2709607E-02)
 number of electron     128.0000133 magnetization       0.0731213
 augmentation part       16.6191763 magnetization       0.0727851

 Broyden mixing:
  rms(total) = 0.54069E-01    rms(broyden)= 0.54065E-01
  rms(prec ) = 0.58469E-01
  weight for this iteration     100.00

 eigenvalues of (default mixing * dielectric matrix)
  average eigenvalue GAMMA=   1.2770
  2.9329  1.7876  1.7876  1.5460  0.9892  0.4785  0.6576  0.6576  0.6562

 Free energy of the ion-electron system (eV)
  ---------------------------------------------------
  alpha Z        PSCENC =       248.93912067
  Ewald energy   TEWEN  =     -5279.31471607
  -Hartree energ DENC   =     -2644.58029454
  -exchange      EXHF   =         0.00000000
  -V(xc)+E(xc)   XCENC  =       228.43520699
  PAW double counting   =     10321.79698544   -10083.97306345
  entropy T*S    EENTRO =        -0.00000000
  eigenvalues    EBANDS =      -655.52733433
  atomic energy  EATOM  =      7664.86366482
  Solvation  Ediel_sol  =         0.00000000
  ---------------------------------------------------
  free energy    TOTEN  =      -199.36043047 eV

  energy without entropy =     -199.36043047  energy(sigma->0) =     -199.36043047


--------------------------------------------------------------------------------------------------------




----------------------------------------- Iteration    1(  22)  ---------------------------------------


    POTLOK:  cpu time    0.0109: real time    0.0110
    SETDIJ:  cpu time    0.0045: real time    0.0046
    EDDIAG:  cpu time    0.4826: real time    0.4859
  RMM-DIIS:  cpu time    0.6415: real time    0.6455
    ORTHCH:  cpu time    0.1254: real time    0.1262
       DOS:  cpu time    0.0005: real time    0.0006
    CHARGE:  cpu time    0.0457: real time    0.0459
    MIXING:  cpu time    0.0009: real time    0.0009
    --------------------------------------------
      LOOP:  cpu time    1.3135: real time    1.3343

 eigenvalue-minimisations  : 10487
 total energy-change (2. order) :-0.4556429E-03  (-0.6503318E-03)
 number of electron     128.0000133 magnetization       0.0335085
 augmentation part       16.5892135 magnetization       0.0332901

 Broyden mixing:
  rms(total) = 0.12327E-01    rms(broyden)= 0.12323E-01
  rms(prec ) = 0.13670E-01
  weight for this iteration     100.00

 eigenvalues of (default mixing * dielectric matrix)
  average eigenvalue GAMMA=   1.2388
  3.0269  1.7759  1.7759  1.2403  1.2403  0.8735  0.4785  0.6591  0.6590  0.6590

 Free energy of the ion-electron system (eV)
  ---------------------------------------------------
  alpha Z        PSCENC =       248.93912067
  Ewald energy   TEWEN  =     -5279.31471607
  -Hartree energ DENC   =     -2644.77554635
  -exchange      EXHF   =         0.00000000
  -V(xc)+E(xc)   XCENC  =       228.41733356
  PAW double counting   =     10304.73645242   -10066.92803128
  entropy T*S    EENTRO =        -0.00000000
  eigenvalues    EBANDS =      -655.29916388
  atomic energy  EATOM  =      7664.86366482
  Solvation  Ediel_sol  =         0.00000000
  ---------------------------------------------------
  free energy    TOTEN  =      -199.36088611 eV

  energy without entropy =     -199.36088611  energy(sigma->0) =     -199.36088611


--------------------------------------------------------------------------------------------------------




----------------------------------------- Iteration    1(  23)  ---------------------------------------


    POTLOK:  cpu time    0.0108: real time    0.0109
[...]
     44      -1.1784      1.00000
     45      -1.0888      1.00000
     46      -1.0544      1.00000
     47      -1.0435      1.00000
     48      -0.9765      1.00000
     49      -0.9028      1.00000
     50      -0.8864      1.00000
     51      -0.8259      1.00000
     52      -0.7598      1.00000
     53      -0.6050      1.00000
     54      -0.5977      1.00000
     55      -0.5523      1.00000
     56      -0.4647      1.00000
     57      -0.4644      1.00000
     58      -0.3998      1.00000
     59      -0.2585      1.00000
     60      -0.2456      1.00000
     61      -0.2181      1.00000
     62      -0.1731      1.00000
     63      -0.0978      1.00000
     64      -0.0948      1.00000
     65       4.1417      0.00000
     66       4.1491      0.00000
     67       4.1508      0.00000
     68       4.1860      0.00000
     69       4.2520      0.00000
     70       4.2592      0.00000
     71       4.2681      0.00000
     72       4.2766      0.00000
     73       4.8802      0.00000
     74       4.9274      0.00000
     75       4.9789      0.00000
     76       4.9967      0.00000
     77       5.0563      0.00000
     78       5.0822      0.00000
     79       5.1099      0.00000
     80       5.1331      0.00000
     81       5.1403      0.00000
     82       5.1567      0.00000
     83       5.2033      0.00000
     84       5.2116      0.00000
     85       8.1977      0.00000
     86       8.4598      0.00000
     87       8.5588      0.00000
     88       8.7065      0.00000
     89       9.4270      0.00000
     90       9.6028      0.00000
     91       9.6966      0.00000
     92      10.0483      0.00000
     93      10.5127      0.00000
     94      10.5827      0.00000
     95      10.6145      0.00000
     96      10.6675      0.00000
     97      10.7853      0.00000
     98      11.0530      0.00000
     99      11.1225      0.00000
    100      11.2109      0.00000
    101      13.1525      0.00000
    102      13.2877      0.00000
    103      13.4694      0.00000
    104      13.7618      0.00000

 k-point    18 :       0.5000    0.5000    0.3333
  band No.  band energies     occupation 
      1     -15.8618      1.00000
      2     -15.8618      1.00000
      3     -15.8517      1.00000
      4     -15.8517      1.00000
      5     -15.6151      1.00000
      6     -15.6151      1.00000
      7     -15.6090      1.00000
      8     -15.6090      1.00000
      9     -15.5368      1.00000
     10     -15.5368      1.00000
     11     -15.5268      1.00000
     12     -15.5268      1.00000
     13     -15.5166      1.00000
     14     -15.5166      1.00000
     15     -15.5085      1.00000
     16     -15.5085      1.00000
     17      -3.1768      1.00000
     18      -3.1768      1.00000
     19      -3.1631      1.00000
     20      -3.1631      1.00000
     21      -3.0486      1.00000
     22      -3.0486      1.00000
     23      -2.9931      1.00000
     24      -2.9931      1.00000
     25      -2.9266      1.00000
     26      -2.9266      1.00000
     27      -2.8264      1.00000
     28      -2.8264      1.00000
     29      -2.5667      1.00000
     30      -2.5667      1.00000
     31      -2.4040      1.00000
     32      -2.4040      1.00000
     33      -2.2615      1.00000
     34      -2.2615      1.00000
     35      -2.1470      1.00000
     36      -2.1470      1.00000
     37      -1.9482      1.00000
     38      -1.9482      1.00000
     39      -1.8783      1.00000
     40      -1.8783      1.00000
     41      -1.2992      1.00000
     42      -1.2992      1.00000
     43      -1.0928      1.00000
     44      -1.0928      1.00000
     45      -1.0107      1.00000
     46      -1.0107      1.00000
     47      -0.9649      1.00000
     48      -0.9649      1.00000
     49      -0.6600      1.00000
     50      -0.6600      1.00000
     51      -0.6504      1.00000
     52      -0.6504      1.00000
     53      -0.3983      1.00000
     54      -0.3983      1.00000
     55      -0.3933      1.00000
     56      -0.3933      1.00000
     57      -0.2580      1.00000
     58      -0.2580      1.00000
     59      -0.2310      1.00000
     60      -0.2310      1.00000
     61      -0.1991      1.00000
     62      -0.1991      1.00000
     63      -0.1666      1.00000
     64      -0.1666      1.00000
     65       4.1227      0.00000
     66       4.1227      0.00000
     67       4.1340      0.00000
     68       4.1340      0.00000
     69       4.2324      0.00000
     70       4.2324      0.00000
     71       4.2327      0.00000
     72       4.2327      0.00000
     73       4.8653      0.00000
     74       4.8653      0.00000
     75       4.9773      0.00000
     76       4.9773      0.00000
     77       5.0881      0.00000
     78       5.0881      0.00000
     79       5.1108      0.00000
     80       5.1108      0.00000
     81       5.4690      0.00000
     82       5.4690      0.00000
     83       5.4777      0.00000
     84       5.4777      0.00000
     85       8.9656      0.00000
     86       8.9656      0.00000
     87       8.9913      0.00000
     88       8.9913      0.00000
     89       9.5932      0.00000
     90       9.5932      0.00000
     91       9.6218      0.00000
     92       9.6218      0.00000
     93       9.7829      0.00000
     94       9.7829      0.00000
     95       9.8709      0.00000
     96       9.8709      0.00000
     97      10.2831      0.00000
     98      10.2831      0.00000
     99      10.4241      0.00000
    100      10.4241      0.00000
    101      13.1464      0.00000
    102      13.1989      0.00000
    103      13.5023      0.00000
    104      13.6338      0.00000


--------------------------------------------------------------------------------------------------------


 soft charge-density along one line, spin component           1
         0         1         2         3         4         5         6         7         8         9
 total charge-density along one line
 
 soft charge-density along one line, spin component           2
         0         1         2         3         4         5         6         7         8         9
 total charge-density along one line
 
 pseudopotential strength for first ion, spin component:           1
  1.180   5.287  -0.000  -0.000   0.000
  5.287  22.643  -0.002  -0.002   0.002
 -0.000  -0.002  -0.327  -0.000   0.000
 -0.000  -0.002  -0.000  -0.327  -0.000
  0.000   0.002   0.000  -0.000  -0.327
 pseudopotential strength for first ion, spin component:           2
  1.180   5.287  -0.000  -0.000   0.000
  5.287  22.643  -0.002  -0.002   0.002
 -0.000  -0.002  -0.327  -0.000   0.000
 -0.000  -0.002  -0.000  -0.327  -0.000
  0.000   0.002   0.000  -0.000  -0.327
 total augmentation occupancy for first ion, spin component:           1
  1.130  -0.030   0.007   0.007  -0.006
 -0.030   0.001  -0.000  -0.000   0.000
  0.007  -0.000   0.114   0.001   0.001
  0.007  -0.000   0.001   0.106   0.001
 -0.006   0.000   0.001   0.001   0.098
 total augmentation occupancy for first ion, spin component:           2
 -0.000   0.000   0.000  -0.000   0.000
  0.000  -0.000   0.000   0.000  -0.000
  0.000   0.000  -0.000  -0.000  -0.000
 -0.000   0.000  -0.000  -0.000  -0.000
  0.000  -0.000  -0.000  -0.000  -0.000


------------------------ aborting loop because EDIFF is reached ----------------------------------------


    CHARGE:  cpu time    0.0507: real time    0.0510
    FORLOC:  cpu time    0.0010: real time    0.0010
    FORNL :  cpu time    0.2390: real time    0.2402
    STRESS:  cpu time    0.7197: real time    0.7236
    FORCOR:  cpu time    0.0114: real time    0.0114
    FORHAR:  cpu time    0.0021: real time    0.0021
    MIXING:  cpu time    0.0014: real time    0.0014
    OFIELD:  cpu time    0.0001: real time    0.0001

 ---------------------------------------------------------------------------------------------

         DFTD3 V3.0 Rev 1        
 IVDW         = 12
 DF pbe       
 parameters
 VDW_S6       =    1.0000
 VDW_S8       =    0.7875
 VDW_A1       =    0.4289
 VDW_A2       =    4.4407
 k1-k3        =   16.0000    1.3333   -4.0000
 VDW_RADIUS   =   50.2022 A
 VDW_CNRADIUS =   21.1671 A
 Edisp (eV)   -6.31227

 E6    (eV) :    -3.8913
 E8    (eV) :    -2.4209
 % E8        : 38.35
    FORVDW:  cpu time    0.1624: real time    0.1657

  FORCE on cell =-STRESS in cart. coord.  units (eV):
  Direction    XX          YY          ZZ          XY          YZ          ZX
  --------------------------------------------------------------------------------------
  Alpha Z   248.93912   248.93912   248.93912
  Ewald   -1680.77453 -1853.33303 -1745.22687    -0.00000    -0.00000     0.00000
  Hartree   954.13036   803.11318   887.01576    -0.00000    -0.00000    -0.00000
  E(xc)    -602.67626  -603.43375  -603.34132     0.00000     0.00000     0.00000
  Local   -1047.46619  -722.59098  -915.15714     0.00000     0.00000    -0.00000
  n-local  -343.21459  -340.87547  -340.92151    -0.00733     0.00010     0.00019
  augment   177.30689   177.49230   177.55643    -0.00000    -0.00000     0.00000
  Kinetic  2300.28751  2297.24693  2297.65766    -0.21972    -0.00031     0.00021
  Fock        0.00000     0.00000     0.00000     0.00000     0.00000     0.00000
  vdW        -6.47210    -6.54093    -6.53126    -0.00000     0.00000    -0.00000
  -------------------------------------------------------------------------------------
  Total       0.06021     0.01738    -0.00913     0.00000     0.00000     0.00000
  in kB       0.28863     0.08331    -0.04379     0.00000     0.00000     0.00000
  external pressure =        0.11 kB  Pullay stress =        0.00 kB


 VOLUME and BASIS-vectors are now :
 -----------------------------------------------------------------------------
  energy-cutoff  :      600.00
  volume of cell :      334.20
      direct lattice vectors                 reciprocal lattice vectors
     4.914905813  0.000000000  0.000000000     0.203462699 -0.000000000  0.000000000
     0.000000000  5.410010394  0.000000000     0.000000000  0.184842528  0.000000000
     0.000000000  0.000000000 12.568643015    -0.000000000 -0.000000000  0.079563084

  length of vectors
     4.914905813  5.410010394 12.568643015     0.203462699  0.184842528  0.079563084


 FORCES acting on ions
    electron-ion (+dipol)            ewald-force                    non-local-force                 convergence-correction
 -----------------------------------------------------------------------------------------------
   -.120E-01 0.431E+01 0.133E+01   -.539E-01 -.423E+01 -.126E+01   0.657E-01 -.804E-01 -.741E-01   -.268E-07 -.873E-04 -.131E-04
   -.120E-01 -.431E+01 -.133E+01   -.539E-01 0.423E+01 0.126E+01   0.657E-01 0.804E-01 0.741E-01   -.268E-07 0.873E-04 0.131E-04
   -.120E-01 -.431E+01 0.133E+01   -.539E-01 0.423E+01 -.126E+01   0.657E-01 0.804E-01 -.741E-01   -.268E-07 0.873E-04 -.131E-04
   -.120E-01 0.431E+01 -.133E+01   -.539E-01 -.423E+01 0.126E+01   0.657E-01 -.804E-01 0.741E-01   -.268E-07 -.873E-04 0.131E-04
   -.507E+00 -.759E+01 -.116E-06   0.370E+00 0.735E+01 -.146E-12   0.136E+00 0.238E+00 0.215E-16   -.318E-05 0.117E-03 0.203E-15
   -.507E+00 0.759E+01 -.691E-06   0.370E+00 -.735E+01 -.287E-11   0.136E+00 -.238E+00 -.489E-17   -.318E-05 -.117E-03 0.627E-14
   -.120E-01 0.431E+01 0.133E+01   -.539E-01 -.423E+01 -.126E+01   0.657E-01 -.804E-01 -.741E-01   -.268E-07 -.873E-04 -.131E-04
   -.120E-01 -.431E+01 -.133E+01   -.539E-01 0.423E+01 0.126E+01   0.657E-01 0.804E-01 0.741E-01   -.268E-07 0.873E-04 0.131E-04
   -.120E-01 -.431E+01 0.133E+01   -.539E-01 0.423E+01 -.126E+01   0.657E-01 0.804E-01 -.741E-01   -.268E-07 0.873E-04 -.131E-04
   -.120E-01 0.431E+01 -.133E+01   -.539E-01 -.423E+01 0.126E+01   0.657E-01 -.804E-01 0.741E-01   -.268E-07 -.873E-04 0.131E-04
   -.507E+00 -.759E+01 -.116E-06   0.370E+00 0.735E+01 -.287E-11   0.136E+00 0.238E+00 0.215E-16   -.318E-05 0.117E-03 0.313E-14
   -.507E+00 0.759E+01 -.691E-06   0.370E+00 -.735E+01 -.142E-12   0.136E+00 -.238E+00 -.489E-17   -.318E-05 -.117E-03 -.783E-14
   -.590E+01 -.953E+01 0.206E-08   0.581E+01 0.951E+01 -.895E-12   0.859E-01 0.216E-01 0.644E-17   -.132E-04 0.491E-03 -.211E-13
   -.590E+01 0.953E+01 0.774E-06   0.581E+01 -.951E+01 -.169E-10   0.859E-01 -.216E-01 0.404E-17   -.132E-04 -.491E-03 -.575E-14
   -.590E+01 -.953E+01 0.206E-08   0.581E+01 0.951E+01 -.168E-10   0.859E-01 0.216E-01 0.644E-17   -.132E-04 0.491E-03 -.612E-13
   -.590E+01 0.953E+01 0.774E-06   0.581E+01 -.951E+01 -.995E-12   0.859E-01 -.216E-01 0.404E-17   -.132E-04 -.491E-03 -.225E-13
   -.282E+02 -.617E+02 -.842E+02   0.332E+02 0.692E+02 0.977E+02   -.502E+01 -.755E+01 -.134E+02   0.970E-03 0.248E-02 0.298E-02
   0.895E+02 -.170E+02 0.630E-06   -.107E+03 0.170E+02 -.154E-11   0.171E+02 0.248E-02 0.105E-14   -.322E-02 0.849E-03 0.550E-13
   -.282E+02 -.617E+02 0.842E+02   0.332E+02 0.692E+02 -.977E+02   -.502E+01 -.755E+01 0.134E+02   0.970E-03 0.248E-02 -.298E-02
   -.282E+02 0.617E+02 0.842E+02   0.332E+02 -.692E+02 -.977E+02   -.502E+01 0.755E+01 0.134E+02   0.970E-03 -.248E-02 -.298E-02
   -.282E+02 0.617E+02 -.842E+02   0.332E+02 -.692E+02 0.977E+02   -.502E+01 0.755E+01 -.134E+02   0.970E-03 -.248E-02 0.298E-02
   -.291E+02 -.106E+03 -.118E-04   0.342E+02 0.121E+03 -.892E-12   -.509E+01 -.154E+02 -.117E-14   0.992E-03 0.410E-02 -.466E-13
   -.291E+02 0.106E+03 0.199E-05   0.342E+02 -.121E+03 -.374E-11   -.509E+01 0.154E+02 0.544E-15   0.992E-03 -.410E-02 0.421E-14
   0.895E+02 0.170E+02 -.307E-05   -.107E+03 -.170E+02 -.998E-12   0.171E+02 -.248E-02 0.105E-14   -.322E-02 -.849E-03 0.472E-13
   -.282E+02 -.617E+02 -.842E+02   0.332E+02 0.692E+02 0.977E+02   -.502E+01 -.755E+01 -.134E+02   0.970E-03 0.248E-02 0.298E-02
   0.895E+02 -.170E+02 0.630E-06   -.107E+03 0.170E+02 -.959E-12   0.171E+02 0.248E-02 0.105E-14   -.322E-02 0.849E-03 -.925E-13
   -.282E+02 -.617E+02 0.842E+02   0.332E+02 0.692E+02 -.977E+02   -.502E+01 -.755E+01 0.134E+02   0.970E-03 0.248E-02 -.298E-02
   -.282E+02 0.617E+02 0.842E+02   0.332E+02 -.692E+02 -.977E+02   -.502E+01 0.755E+01 0.134E+02   0.970E-03 -.248E-02 -.298E-02
   -.282E+02 0.617E+02 -.842E+02   0.332E+02 -.692E+02 0.977E+02   -.502E+01 0.755E+01 -.134E+02   0.970E-03 -.248E-02 0.298E-02
   -.291E+02 -.106E+03 -.118E-04   0.342E+02 0.121E+03 -.156E-11   -.509E+01 -.154E+02 -.117E-14   0.992E-03 0.410E-02 0.330E-13
   -.291E+02 0.106E+03 0.199E-05   0.342E+02 -.121E+03 -.952E-12   -.509E+01 0.154E+02 0.544E-15   0.992E-03 -.410E-02 -.145E-12
   0.895E+02 0.170E+02 -.307E-05   -.107E+03 -.170E+02 -.395E-11   0.171E+02 -.248E-02 0.105E-14   -.322E-02 -.849E-03 0.110E-12
 -----------------------------------------------------------------------------------------------
   -.947E+01 0.155E-10 -.732E-04   0.114E-12 -.249E-13 0.130E-12   0.944E+01 -.170E-14 0.425E-15   -.121E-02 -.797E-13 -.710E-13
 
 
 POSITION                                       TOTAL-FORCE (eV/Angst)
 -----------------------------------------------------------------------------------
      0.04870      3.61104      1.55497         0.000003     -0.001817      0.000935
      2.50615      1.79897      1.58719         0.000003      0.001817     -0.000935
      2.50615      1.79897      4.69713         0.000003      0.001817      0.000935
      0.04870      3.61104      4.72935         0.000003     -0.001817     -0.000935
      0.05186      0.91244      3.14216         0.000414      0.000810      0.000000
      2.50932      4.49757      0.00000         0.000414     -0.000810      0.000000
      0.04870      3.61104      7.83929         0.000003     -0.001817      0.000935
      2.50615      1.79897      7.87151         0.000003      0.001817     -0.000935
      2.50615      1.79897     10.98145         0.000003      0.001817      0.000935
      0.04870      3.61104     11.01367         0.000003     -0.001817     -0.000935
      0.05186      0.91244      9.42648         0.000414      0.000810      0.000000
      2.50932      4.49757      6.28432         0.000414     -0.000810      0.000000
      0.00868      0.91681      0.00000        -0.004390      0.001729     -0.000000
      2.46613      4.49320      3.14216        -0.004390     -0.001729     -0.000000
      0.00868      0.91681      6.28432        -0.004390      0.001729     -0.000000
      2.46613      4.49320      9.42648        -0.004390     -0.001729     -0.000000
      0.54980      1.73985      1.43213         0.001891     -0.001919      0.000371
      3.19231      0.93290      0.00000        -0.002062     -0.007923     -0.000000
      0.54980      1.73985      4.85219         0.001891     -0.001919     -0.000371
      3.00725      3.67017      1.71003         0.001891      0.001919     -0.000371
      3.00725      3.67017      4.57429         0.001891      0.001919      0.000371
      3.00015      0.73464      3.14216         0.002250     -0.003833     -0.000000
      0.54269      4.67537      0.00000         0.002250      0.003833      0.000000
      0.73486      4.47711      3.14216        -0.002062      0.007923      0.000000
      0.54980      1.73985      7.71645         0.001891     -0.001919      0.000371
      3.19231      0.93290      6.28432        -0.002062     -0.007923     -0.000000
      0.54980      1.73985     11.13651         0.001891     -0.001919     -0.000371
      3.00725      3.67017      7.99435         0.001891      0.001919     -0.000371
      3.00725      3.67017     10.85861         0.001891      0.001919      0.000371
      3.00015      0.73464      9.42648         0.002250     -0.003833     -0.000000
      0.54269      4.67537      6.28432         0.002250      0.003833      0.000000
      0.73486      4.47711      9.42648        -0.002062      0.007923      0.000000
 -----------------------------------------------------------------------------------
    total drift:                               -0.038004      0.000000     -0.000073


--------------------------------------------------------------------------------------------------------



  FREE ENERGIE OF THE ION-ELECTRON SYSTEM (eV)
  ---------------------------------------------------
  free  energy   TOTEN  =      -205.67326377 eV

  energy  without entropy=     -205.67326377  energy(sigma->0) =     -205.67326377
 


--------------------------------------------------------------------------------------------------------


    POTLOK:  cpu time    0.0170: real time    0.0171


--------------------------------------------------------------------------------------------------------


 stress matrix after NEB project (eV)
      0.06021      0.00000      0.00000
      0.00000      0.01738      0.00000
      0.00000      0.00000     -0.00913
  FORCES: max atom, RMS     0.008187    0.004077
  FORCE total and by dimension    0.023066    0.007923
  Stress total and by dimension    0.063325    0.060205
     LOOP+:  cpu time   33.7716: real time   34.3468
    4ORBIT:  cpu time    0.0000: real time    0.0000

 total amount of memory used by VASP on root node    46096. kBytes
========================================================================

   base      :      30000. kBytes
   nonlr-proj:       2649. kBytes
   fftplans  :        688. kBytes
   grid      :       1733. kBytes
   one-center:        124. kBytes
   wavefun   :      10902. kBytes
 
  
  
 General timing and accounting informations for this job:
 ========================================================
  
                  Total CPU time used (sec):       40.554
                            User time (sec):       37.797
                          System time (sec):        2.757
                         Elapsed time (sec):       45.216
  
                   Maximum memory used (kb):      468972.
                   Average memory used (kb):           0.
  
                          Minor page faults:        62655
                          Major page faults:          182
                 Voluntary context switches:         5782
