 running on   64 total cores
 distrk:  each k-point on   64 cores,    1 groups
 distr:  one band on    8 cores,    8 groups
 using from now: INCAR     
 vasp.5.4.1 05Feb16 (build Apr 23 2022 14:15:44) complex                        
  
 POSCAR found type information on POSCAR  Li V  O 
 POSCAR found :  3 types and      32 ions
 scaLAPACK will be used
 LDA part: xc-table for Pade appr. of Perdew
 POSCAR found type information on POSCAR  Li V  O 
 POSCAR found :  3 types and      32 ions
 POSCAR, INCAR and KPOINTS ok, starting setup
 WARNING: small aliasing (wrap around) errors must be expected
 FFT: planning ...
 WAVECAR not read
 entering main loop
       N       E                     dE             d eps       ncg     rms          rms(c)
RMM:   1     0.170506865010E+04    0.17051E+04   -0.45275E+04  3744   0.116E+03
RMM:   2     0.499491865069E+03   -0.12056E+04   -0.11407E+04  3744   0.292E+02
RMM:   3     0.124666888864E+03   -0.37482E+03   -0.33240E+03  3744   0.165E+02
RMM:   4    -0.631355267734E+02   -0.18780E+03   -0.10878E+03  3744   0.210E+02
RMM:   5    -0.161266331662E+03   -0.98131E+02   -0.69135E+02  3744   0.108E+02
RMM:   6    -0.204411895673E+03   -0.43146E+02   -0.28272E+02  3744   0.890E+01
RMM:   7    -0.227709864940E+03   -0.23298E+02   -0.16908E+02  3744   0.518E+01
RMM:   8    -0.238253953424E+03   -0.10544E+02   -0.73500E+01  3744   0.464E+01
RMM:   9    -0.250388863465E+03   -0.12135E+02   -0.10658E+02 12455   0.253E+01
RMM:  10    -0.250589146120E+03   -0.20028E+00   -0.13937E+00 12649   0.340E+00
RMM:  11    -0.250594083940E+03   -0.49378E-02   -0.33403E-02 12625   0.507E-01
RMM:  12    -0.250594300517E+03   -0.21658E-03   -0.18559E-03 11749   0.959E-02    0.100E+02
RMM:  13    -0.184616027093E+03    0.65978E+02   -0.35388E+02  9718   0.648E+01    0.426E+01
RMM:  14    -0.197084371815E+03   -0.12468E+02   -0.58028E+01  9758   0.246E+01    0.530E+01
RMM:  15    -0.195879943666E+03    0.12044E+01   -0.17887E+01  8717   0.124E+01    0.198E+01
RMM:  16    -0.197862290796E+03   -0.19823E+01   -0.13359E+01  8891   0.144E+01    0.127E+01
RMM:  17    -0.198451922884E+03   -0.58963E+00   -0.18230E+00 10173   0.330E+00    0.715E+00
RMM:  18    -0.198906570382E+03   -0.45465E+00   -0.65933E-01  9477   0.248E+00    0.389E+00
RMM:  19    -0.199386136480E+03   -0.47957E+00   -0.36025E-01  9299   0.211E+00    0.185E+00
RMM:  20    -0.199377156788E+03    0.89797E-02   -0.57679E-02 10003   0.843E-01    0.105E+00
RMM:  21    -0.199360430468E+03    0.16726E-01   -0.27096E-02  9824   0.551E-01    0.541E-01
RMM:  22    -0.199360886110E+03   -0.45564E-03   -0.65033E-03 10487   0.241E-01    0.123E-01
RMM:  23    -0.199361056011E+03   -0.16990E-03   -0.96766E-04 10176   0.861E-02    0.103E-01
RMM:  24    -0.199361005362E+03    0.50649E-04   -0.23196E-04  9320   0.607E-02    0.387E-02
RMM:  25    -0.199361003034E+03    0.23280E-05   -0.99598E-05 10165   0.301E-02    0.353E-02
RMM:  26    -0.199360994795E+03    0.82393E-05   -0.88454E-06  8387   0.137E-02    0.924E-03
RMM:  27    -0.199360993189E+03    0.16055E-05   -0.11444E-05  8961   0.118E-02    0.851E-03
RMM:  28    -0.199360993297E+03   -0.10731E-06   -0.14444E-06  6179   0.535E-03
   1 F= -.20567326E+03 E0= -.20567326E+03  d E =-.382320E-11  mag=    -0.0001
