  14  14   0   0
  0.1006028E+02  0.5485431E-09  0.5007660E-09  0.5846213E-09  0.5000000E-15
  1.000000000000000E-004
  CAR 
 unknown system                          
     19.38978101    -16.51460133  301      5.83522662      1.00000000
    -16.515  0.0000E+00  0.0000E+00  0.0000E+00  0.0000E+00
    -16.395  0.0000E+00  0.0000E+00  0.0000E+00  0.0000E+00
    -16.275  0.0000E+00  0.0000E+00  0.0000E+00  0.0000E+00
    -16.156  0.0000E+00  0.0000E+00  0.0000E+00  0.0000E+00
    -16.036  0.0000E+00  0.0000E+00  0.0000E+00  0.0000E+00
    -15.916  0.0000E+00  0.0000E+00  0.0000E+00  0.0000E+00
    -15.797  0.0000E+00  0.0000E+00  0.0000E+00  0.0000E+00
    -15.677  0.0000E+00  0.0000E+00  0.0000E+00  0.0000E+00
    -15.557  0.0000E+00  0.0000E+00  0.0000E+00  0.0000E+00
    -15.437  0.0000E+00  0.0000E+00  0.0000E+00  0.0000E+00
    -15.318  0.0000E+00  0.0000E+00  0.0000E+00  0.0000E+00
    -15.198  0.0000E+00  0.0000E+00  0.0000E+00  0.0000E+00
    -15.078  0.0000E+00  0.0000E+00  0.0000E+00  0.0000E+00
    -14.959  0.8048E-08  0.8048E-08  0.9632E-09  0.9632E-09
    -14.839  0.1890E-03  0.1890E-03  0.2263E-04  0.2263E-04
    -14.719  0.1200E-02  0.1200E-02  0.1662E-03  0.1662E-03
    -14.600  0.2632E-02  0.2632E-02  0.4812E-03  0.4812E-03
    -14.480  0.4903E-02  0.4903E-02  0.1068E-02  0.1068E-02
    -14.360  0.7475E-02  0.7475E-02  0.1963E-02  0.1963E-02
    -14.241  0.1109E-01  0.1109E-01  0.3290E-02  0.3290E-02
    -14.121  0.2898E-01  0.2898E-01  0.6758E-02  0.6758E-02
    -14.001  0.1037E-01  0.1037E-01  0.7999E-02  0.7999E-02
    -13.882  0.7647E-05  0.7647E-05  0.8000E-02  0.8000E-02
    -13.762  0.6876E-06  0.6876E-06  0.8000E-02  0.8000E-02
    -13.642  0.2690E-02  0.2690E-02  0.8322E-02  0.8322E-02
    -13.523  0.1845E-01  0.1845E-01  0.1053E-01  0.1053E-01
    -13.403  0.2539E-01  0.2539E-01  0.1357E-01  0.1357E-01
    -13.283  0.1453E-01  0.1453E-01  0.1531E-01  0.1531E-01
    -13.164  0.5505E-02  0.5505E-02  0.1597E-01  0.1597E-01
    -13.044  0.2734E-03  0.2735E-03  0.1600E-01  0.1600E-01
    -12.924  0.3270E-09  0.3270E-09  0.1600E-01  0.1600E-01
    -12.804  0.0000E+00  0.0000E+00  0.1600E-01  0.1600E-01
    -12.685  0.0000E+00  0.0000E+00  0.1600E-01  0.1600E-01
    -12.565  0.0000E+00  0.0000E+00  0.1600E-01  0.1600E-01
    -12.445  0.0000E+00  0.0000E+00  0.1600E-01  0.1600E-01
    -12.326  0.0000E+00  0.0000E+00  0.1600E-01  0.1600E-01
    -12.206  0.0000E+00  0.0000E+00  0.1600E-01  0.1600E-01
    -12.086  0.0000E+00  0.0000E+00  0.1600E-01  0.1600E-01
    -11.967  0.0000E+00  0.0000E+00  0.1600E-01  0.1600E-01
    -11.847  0.0000E+00  0.0000E+00  0.1600E-01  0.1600E-01
    -11.727  0.0000E+00  0.0000E+00  0.1600E-01  0.1600E-01
    -11.608  0.0000E+00  0.0000E+00  0.1600E-01  0.1600E-01
    -11.488  0.0000E+00  0.0000E+00  0.1600E-01  0.1600E-01
    -11.368  0.0000E+00  0.0000E+00  0.1600E-01  0.1600E-01
    -11.249  0.0000E+00  0.0000E+00  0.1600E-01  0.1600E-01
    -11.129  0.0000E+00  0.0000E+00  0.1600E-01  0.1600E-01
    -11.009  0.0000E+00  0.0000E+00  0.1600E-01  0.1600E-01
    -10.890  0.0000E+00  0.0000E+00  0.1600E-01  0.1600E-01
    -10.770  0.0000E+00  0.0000E+00  0.1600E-01  0.1600E-01
    -10.650  0.0000E+00  0.0000E+00  0.1600E-01  0.1600E-01
    -10.531  0.0000E+00  0.0000E+00  0.1600E-01  0.1600E-01
    -10.411  0.0000E+00  0.0000E+00  0.1600E-01  0.1600E-01
    -10.291  0.0000E+00  0.0000E+00  0.1600E-01  0.1600E-01
    -10.171  0.0000E+00  0.0000E+00  0.1600E-01  0.1600E-01
    -10.052  0.0000E+00  0.0000E+00  0.1600E-01  0.1600E-01
     -9.932  0.0000E+00  0.0000E+00  0.1600E-01  0.1600E-01
     -9.812  0.0000E+00  0.0000E+00  0.1600E-01  0.1600E-01
     -9.693  0.0000E+00  0.0000E+00  0.1600E-01  0.1600E-01
     -9.573  0.0000E+00  0.0000E+00  0.1600E-01  0.1600E-01
     -9.453  0.0000E+00  0.0000E+00  0.1600E-01  0.1600E-01
     -9.334  0.0000E+00  0.0000E+00  0.1600E-01  0.1600E-01
     -9.214  0.0000E+00  0.0000E+00  0.1600E-01  0.1600E-01
     -9.094  0.0000E+00  0.0000E+00  0.1600E-01  0.1600E-01
     -8.975  0.0000E+00  0.0000E+00  0.1600E-01  0.1600E-01
     -8.855  0.0000E+00  0.0000E+00  0.1600E-01  0.1600E-01
     -8.735  0.0000E+00  0.0000E+00  0.1600E-01  0.1600E-01
     -8.616  0.0000E+00  0.0000E+00  0.1600E-01  0.1600E-01
     -8.496  0.0000E+00  0.0000E+00  0.1600E-01  0.1600E-01
     -8.376  0.0000E+00  0.0000E+00  0.1600E-01  0.1600E-01
     -8.257  0.0000E+00  0.0000E+00  0.1600E-01  0.1600E-01
     -8.137  0.0000E+00  0.0000E+00  0.1600E-01  0.1600E-01
     -8.017  0.0000E+00  0.0000E+00  0.1600E-01  0.1600E-01
     -7.898  0.0000E+00  0.0000E+00  0.1600E-01  0.1600E-01
     -7.778  0.0000E+00  0.0000E+00  0.1600E-01  0.1600E-01
     -7.658  0.0000E+00  0.0000E+00  0.1600E-01  0.1600E-01
     -7.539  0.0000E+00  0.0000E+00  0.1600E-01  0.1600E-01
     -7.419  0.0000E+00  0.0000E+00  0.1600E-01  0.1600E-01
     -7.299  0.0000E+00  0.0000E+00  0.1600E-01  0.1600E-01
     -7.179  0.0000E+00  0.0000E+00  0.1600E-01  0.1600E-01
     -7.060  0.0000E+00  0.0000E+00  0.1600E-01  0.1600E-01
     -6.940  0.0000E+00  0.0000E+00  0.1600E-01  0.1600E-01
     -6.820  0.0000E+00  0.0000E+00  0.1600E-01  0.1600E-01
     -6.701  0.0000E+00  0.0000E+00  0.1600E-01  0.1600E-01
     -6.581  0.0000E+00  0.0000E+00  0.1600E-01  0.1600E-01
     -6.461  0.0000E+00  0.0000E+00  0.1600E-01  0.1600E-01
     -6.342  0.0000E+00  0.0000E+00  0.1600E-01  0.1600E-01
     -6.222  0.0000E+00  0.0000E+00  0.1600E-01  0.1600E-01
     -6.102  0.0000E+00  0.0000E+00  0.1600E-01  0.1600E-01
     -5.983  0.0000E+00  0.0000E+00  0.1600E-01  0.1600E-01
     -5.863  0.0000E+00  0.0000E+00  0.1600E-01  0.1600E-01
     -5.743  0.0000E+00  0.0000E+00  0.1600E-01  0.1600E-01
     -5.624  0.0000E+00  0.0000E+00  0.1600E-01  0.1600E-01
     -5.504  0.0000E+00  0.0000E+00  0.1600E-01  0.1600E-01
     -5.384  0.0000E+00  0.0000E+00  0.1600E-01  0.1600E-01
     -5.265  0.0000E+00  0.0000E+00  0.1600E-01  0.1600E-01
     -5.145  0.0000E+00  0.0000E+00  0.1600E-01  0.1600E-01
     -5.025  0.0000E+00  0.0000E+00  0.1600E-01  0.1600E-01
     -4.906  0.0000E+00  0.0000E+00  0.1600E-01  0.1600E-01
     -4.786  0.0000E+00  0.0000E+00  0.1600E-01  0.1600E-01
     -4.666  0.0000E+00  0.0000E+00  0.1600E-01  0.1600E-01
     -4.546  0.0000E+00  0.0000E+00  0.1600E-01  0.1600E-01
     -4.427  0.0000E+00  0.0000E+00  0.1600E-01  0.1600E-01
     -4.307  0.0000E+00  0.0000E+00  0.1600E-01  0.1600E-01
     -4.187  0.0000E+00  0.0000E+00  0.1600E-01  0.1600E-01
     -4.068  0.0000E+00  0.0000E+00  0.1600E-01  0.1600E-01
     -3.948  0.0000E+00  0.0000E+00  0.1600E-01  0.1600E-01
     -3.828  0.0000E+00  0.0000E+00  0.1600E-01  0.1600E-01
     -3.709  0.0000E+00  0.0000E+00  0.1600E-01  0.1600E-01
     -3.589  0.0000E+00  0.0000E+00  0.1600E-01  0.1600E-01
     -3.469  0.0000E+00  0.0000E+00  0.1600E-01  0.1600E-01
     -3.350  0.0000E+00  0.0000E+00  0.1600E-01  0.1600E-01
     -3.230  0.0000E+00  0.0000E+00  0.1600E-01  0.1600E-01
     -3.110  0.0000E+00  0.0000E+00  0.1600E-01  0.1600E-01
     -2.991  0.0000E+00  0.0000E+00  0.1600E-01  0.1600E-01
     -2.871  0.0000E+00  0.0000E+00  0.1600E-01  0.1600E-01
     -2.751  0.0000E+00  0.0000E+00  0.1600E-01  0.1600E-01
     -2.632  0.1882E-10  0.1882E-10  0.1600E-01  0.1600E-01
     -2.512  0.3535E-03  0.3535E-03  0.1604E-01  0.1604E-01
     -2.392  0.6234E-02  0.6234E-02  0.1679E-01  0.1679E-01
     -2.273  0.1302E-01  0.1302E-01  0.1835E-01  0.1835E-01
     -2.153  0.1391E-01  0.1391E-01  0.2001E-01  0.2001E-01
     -2.033  0.1261E-01  0.1261E-01  0.2152E-01  0.2152E-01
     -1.913  0.8076E-02  0.8076E-02  0.2249E-01  0.2249E-01
     -1.794  0.9224E-02  0.9224E-02  0.2359E-01  0.2359E-01
     -1.674  0.1106E-01  0.1106E-01  0.2491E-01  0.2491E-01
     -1.554  0.8839E-02  0.8839E-02  0.2597E-01  0.2597E-01
     -1.435  0.8367E-02  0.8367E-02  0.2697E-01  0.2697E-01
     -1.315  0.8266E-02  0.8266E-02  0.2796E-01  0.2796E-01
     -1.195  0.1023E-01  0.1023E-01  0.2919E-01  0.2919E-01
     -1.076  0.8809E-02  0.8809E-02  0.3024E-01  0.3024E-01
     -0.956  0.1135E-01  0.1135E-01  0.3160E-01  0.3160E-01
     -0.836  0.7697E-02  0.7697E-02  0.3252E-01  0.3252E-01
     -0.717  0.6465E-02  0.6465E-02  0.3329E-01  0.3329E-01
     -0.597  0.6679E-02  0.6679E-02  0.3409E-01  0.3409E-01
     -0.477  0.8124E-02  0.8124E-02  0.3507E-01  0.3507E-01
     -0.358  0.7420E-02  0.7420E-02  0.3595E-01  0.3595E-01
     -0.238  0.8786E-02  0.8786E-02  0.3701E-01  0.3701E-01
     -0.118  0.8713E-02  0.8713E-02  0.3805E-01  0.3805E-01
      0.001  0.9353E-02  0.9353E-02  0.3917E-01  0.3917E-01
      0.121  0.8369E-02  0.8369E-02  0.4017E-01  0.4017E-01
      0.241  0.8504E-02  0.8504E-02  0.4119E-01  0.4119E-01
      0.360  0.9442E-02  0.9442E-02  0.4232E-01  0.4232E-01
      0.480  0.1277E-01  0.1277E-01  0.4384E-01  0.4384E-01
      0.600  0.1062E-01  0.1062E-01  0.4512E-01  0.4512E-01
      0.720  0.1275E-01  0.1275E-01  0.4664E-01  0.4664E-01
      0.839  0.1321E-01  0.1321E-01  0.4822E-01  0.4822E-01
      0.959  0.1316E-01  0.1316E-01  0.4980E-01  0.4980E-01
      1.079  0.1009E-01  0.1009E-01  0.5101E-01  0.5101E-01
      1.198  0.1006E-01  0.1006E-01  0.5221E-01  0.5221E-01
      1.318  0.1068E-01  0.1068E-01  0.5349E-01  0.5349E-01
      1.438  0.9270E-02  0.9270E-02  0.5460E-01  0.5460E-01
      1.557  0.8186E-02  0.8186E-02  0.5558E-01  0.5558E-01
      1.677  0.9521E-02  0.9521E-02  0.5672E-01  0.5672E-01
      1.797  0.1375E-01  0.1375E-01  0.5836E-01  0.5836E-01
      1.916  0.1205E-01  0.1205E-01  0.5981E-01  0.5981E-01
      2.036  0.1117E-01  0.1117E-01  0.6114E-01  0.6114E-01
      2.156  0.8853E-02  0.8853E-02  0.6220E-01  0.6220E-01
      2.275  0.5596E-02  0.5596E-02  0.6287E-01  0.6287E-01
      2.395  0.4457E-02  0.4457E-02  0.6341E-01  0.6341E-01
      2.515  0.3239E-02  0.3239E-02  0.6379E-01  0.6379E-01
      2.634  0.1618E-02  0.1618E-02  0.6399E-01  0.6399E-01
      2.754  0.1095E-03  0.1095E-03  0.6400E-01  0.6400E-01
      2.874  0.3728E-06  0.3728E-06  0.6400E-01  0.6400E-01
      2.993  0.1576E-04  0.1576E-04  0.6400E-01  0.6400E-01
      3.113  0.8077E-04  0.8077E-04  0.6401E-01  0.6401E-01
      3.233  0.8381E-03  0.8381E-03  0.6411E-01  0.6411E-01
      3.352  0.2675E-02  0.2675E-02  0.6443E-01  0.6443E-01
      3.472  0.2045E-02  0.2045E-02  0.6468E-01  0.6468E-01
      3.592  0.5004E-02  0.5004E-02  0.6528E-01  0.6528E-01
      3.712  0.5858E-02  0.5858E-02  0.6598E-01  0.6598E-01
      3.831  0.7435E-02  0.7435E-02  0.6687E-01  0.6687E-01
      3.951  0.5542E-02  0.5542E-02  0.6753E-01  0.6753E-01
      4.071  0.3994E-02  0.3994E-02  0.6801E-01  0.6801E-01
      4.190  0.1021E-02  0.1021E-02  0.6813E-01  0.6813E-01
      4.310  0.1647E-02  0.1647E-02  0.6833E-01  0.6833E-01
      4.430  0.2791E-02  0.2791E-02  0.6866E-01  0.6866E-01
      4.549  0.5752E-02  0.5752E-02  0.6935E-01  0.6935E-01
      4.669  0.6183E-02  0.6183E-02  0.7009E-01  0.7009E-01
      4.789  0.8595E-02  0.8595E-02  0.7112E-01  0.7112E-01
      4.908  0.4192E-02  0.4192E-02  0.7162E-01  0.7162E-01
      5.028  0.2890E-02  0.2890E-02  0.7197E-01  0.7197E-01
      5.148  0.1870E-02  0.1870E-02  0.7219E-01  0.7219E-01
      5.267  0.1551E-02  0.1551E-02  0.7238E-01  0.7238E-01
      5.387  0.1929E-02  0.1929E-02  0.7261E-01  0.7261E-01
      5.507  0.2291E-02  0.2291E-02  0.7288E-01  0.7288E-01
      5.626  0.2738E-02  0.2738E-02  0.7321E-01  0.7321E-01
      5.746  0.2723E-02  0.2723E-02  0.7353E-01  0.7353E-01
      5.866  0.5399E-02  0.5399E-02  0.7418E-01  0.7418E-01
      5.985  0.5704E-02  0.5704E-02  0.7486E-01  0.7486E-01
      6.105  0.5713E-02  0.5713E-02  0.7555E-01  0.7555E-01
      6.225  0.7469E-02  0.7469E-02  0.7644E-01  0.7644E-01
      6.345  0.8278E-02  0.8278E-02  0.7743E-01  0.7743E-01
      6.464  0.6990E-02  0.6990E-02  0.7827E-01  0.7827E-01
      6.584  0.7978E-02  0.7978E-02  0.7922E-01  0.7922E-01
      6.704  0.1068E-01  0.1068E-01  0.8050E-01  0.8050E-01
      6.823  0.9534E-02  0.9534E-02  0.8164E-01  0.8164E-01
      6.943  0.8069E-02  0.8069E-02  0.8261E-01  0.8261E-01
      7.063  0.4826E-02  0.4826E-02  0.8319E-01  0.8319E-01
      7.182  0.2207E-02  0.2207E-02  0.8345E-01  0.8345E-01
      7.302  0.4155E-02  0.4155E-02  0.8395E-01  0.8395E-01
      7.422  0.5799E-02  0.5799E-02  0.8464E-01  0.8464E-01
      7.541  0.4601E-02  0.4601E-02  0.8519E-01  0.8519E-01
      7.661  0.3009E-02  0.3009E-02  0.8555E-01  0.8555E-01
      7.781  0.2330E-02  0.2330E-02  0.8583E-01  0.8583E-01
      7.900  0.6352E-02  0.6352E-02  0.8659E-01  0.8659E-01
      8.020  0.3829E-02  0.3829E-02  0.8705E-01  0.8705E-01
      8.140  0.4750E-02  0.4750E-02  0.8762E-01  0.8762E-01
      8.259  0.5122E-02  0.5122E-02  0.8823E-01  0.8823E-01
      8.379  0.4950E-02  0.4950E-02  0.8882E-01  0.8882E-01
      8.499  0.6266E-02  0.6266E-02  0.8957E-01  0.8957E-01
      8.618  0.8040E-02  0.8040E-02  0.9053E-01  0.9053E-01
      8.738  0.5495E-02  0.5495E-02  0.9119E-01  0.9119E-01
      8.858  0.7056E-02  0.7056E-02  0.9204E-01  0.9204E-01
      8.978  0.6579E-02  0.6579E-02  0.9282E-01  0.9282E-01
      9.097  0.6381E-02  0.6381E-02  0.9359E-01  0.9359E-01
      9.217  0.6487E-02  0.6487E-02  0.9436E-01  0.9436E-01
      9.337  0.6585E-02  0.6585E-02  0.9515E-01  0.9515E-01
      9.456  0.5660E-02  0.5660E-02  0.9583E-01  0.9583E-01
      9.576  0.9397E-02  0.9397E-02  0.9695E-01  0.9695E-01
      9.696  0.8877E-02  0.8877E-02  0.9802E-01  0.9802E-01
      9.815  0.3985E-02  0.3985E-02  0.9849E-01  0.9849E-01
      9.935  0.3164E-02  0.3164E-02  0.9887E-01  0.9887E-01
     10.055  0.2938E-02  0.2938E-02  0.9922E-01  0.9922E-01
     10.174  0.3096E-02  0.3096E-02  0.9960E-01  0.9960E-01
     10.294  0.2837E-02  0.2837E-02  0.9993E-01  0.9993E-01
     10.414  0.3477E-02  0.3477E-02  0.1004E+00  0.1004E+00
     10.533  0.3248E-02  0.3248E-02  0.1007E+00  0.1007E+00
     10.653  0.3863E-02  0.3863E-02  0.1012E+00  0.1012E+00
     10.773  0.3253E-02  0.3253E-02  0.1016E+00  0.1016E+00
     10.892  0.3599E-02  0.3599E-02  0.1020E+00  0.1020E+00
     11.012  0.5254E-02  0.5254E-02  0.1027E+00  0.1027E+00
     11.132  0.3743E-02  0.3743E-02  0.1031E+00  0.1031E+00
     11.251  0.5734E-02  0.5734E-02  0.1038E+00  0.1038E+00
     11.371  0.3860E-02  0.3860E-02  0.1042E+00  0.1042E+00
     11.491  0.1705E-02  0.1705E-02  0.1045E+00  0.1045E+00
     11.610  0.1680E-02  0.1680E-02  0.1047E+00  0.1047E+00
     11.730  0.1138E-02  0.1138E-02  0.1048E+00  0.1048E+00
     11.850  0.5376E-03  0.5376E-03  0.1049E+00  0.1049E+00
     11.970  0.7788E-03  0.7788E-03  0.1049E+00  0.1049E+00
     12.089  0.1215E-02  0.1215E-02  0.1051E+00  0.1051E+00
     12.209  0.1195E-02  0.1195E-02  0.1052E+00  0.1052E+00
     12.329  0.1387E-02  0.1387E-02  0.1054E+00  0.1054E+00
     12.448  0.1704E-02  0.1704E-02  0.1056E+00  0.1056E+00
     12.568  0.6730E-03  0.6730E-03  0.1057E+00  0.1057E+00
     12.688  0.1939E-02  0.1939E-02  0.1059E+00  0.1059E+00
     12.807  0.1266E-02  0.1266E-02  0.1061E+00  0.1061E+00
     12.927  0.2270E-02  0.2271E-02  0.1063E+00  0.1063E+00
     13.047  0.2868E-02  0.2874E-02  0.1067E+00  0.1067E+00
     13.166  0.1729E-02  0.1822E-02  0.1069E+00  0.1069E+00
     13.286  0.3320E-02  0.3300E-02  0.1073E+00  0.1073E+00
     13.406  0.3088E-02  0.3235E-02  0.1077E+00  0.1077E+00
     13.525  0.3342E-02  0.3343E-02  0.1081E+00  0.1081E+00
     13.645  0.3171E-02  0.3449E-02  0.1084E+00  0.1085E+00
     13.765  0.3415E-02  0.3842E-02  0.1088E+00  0.1090E+00
     13.884  0.3177E-02  0.3060E-02  0.1092E+00  0.1093E+00
     14.004  0.2948E-02  0.3272E-02  0.1096E+00  0.1097E+00
     14.124  0.3202E-02  0.3679E-02  0.1100E+00  0.1102E+00
     14.243  0.2772E-02  0.2868E-02  0.1103E+00  0.1105E+00
     14.363  0.2202E-02  0.2318E-02  0.1106E+00  0.1108E+00
     14.483  0.2669E-02  0.2336E-02  0.1109E+00  0.1111E+00
     14.603  0.2297E-02  0.2312E-02  0.1112E+00  0.1113E+00
     14.722  0.1573E-02  0.1419E-02  0.1113E+00  0.1115E+00
     14.842  0.1291E-02  0.6988E-03  0.1115E+00  0.1116E+00
     14.962  0.8025E-03  0.4644E-03  0.1116E+00  0.1116E+00
     15.081  0.1193E-02  0.1329E-02  0.1117E+00  0.1118E+00
     15.201  0.8781E-03  0.5851E-03  0.1118E+00  0.1119E+00
     15.321  0.6616E-03  0.5544E-03  0.1119E+00  0.1119E+00
     15.440  0.2869E-03  0.2168E-03  0.1120E+00  0.1120E+00
     15.560  0.1079E-03  0.2278E-04  0.1120E+00  0.1120E+00
     15.680  0.5502E-05  0.0000E+00  0.1120E+00  0.1120E+00
     15.799  0.0000E+00  0.0000E+00  0.1120E+00  0.1120E+00
     15.919  0.0000E+00  0.0000E+00  0.1120E+00  0.1120E+00
     16.039  0.0000E+00  0.0000E+00  0.1120E+00  0.1120E+00
     16.158  0.0000E+00  0.0000E+00  0.1120E+00  0.1120E+00
     16.278  0.2191E-08  0.6479E-12  0.1120E+00  0.1120E+00
     16.398  0.9167E-04  0.4715E-04  0.1120E+00  0.1120E+00
     16.517  0.5769E-05  0.5029E-04  0.1120E+00  0.1120E+00
     16.637  0.8114E-19  0.1036E-11  0.1120E+00  0.1120E+00
     16.757  0.9829E-06  0.0000E+00  0.1120E+00  0.1120E+00
     16.876  0.9641E-04  0.0000E+00  0.1120E+00  0.1120E+00
     16.996  0.8469E-04  0.0000E+00  0.1120E+00  0.1120E+00
     17.116  0.1279E-04  0.0000E+00  0.1120E+00  0.1120E+00
     17.236  0.0000E+00  0.1433E-14  0.1120E+00  0.1120E+00
     17.355  0.0000E+00  0.1528E-04  0.1120E+00  0.1120E+00
     17.475  0.0000E+00  0.8216E-04  0.1120E+00  0.1120E+00
     17.595  0.0000E+00  0.1746E-09  0.1120E+00  0.1120E+00
     17.714  0.0000E+00  0.1959E-05  0.1120E+00  0.1120E+00
     17.834  0.0000E+00  0.9547E-04  0.1120E+00  0.1120E+00
     17.954  0.0000E+00  0.1609E-07  0.1120E+00  0.1120E+00
     18.073  0.0000E+00  0.0000E+00  0.1120E+00  0.1120E+00
     18.193  0.0000E+00  0.0000E+00  0.1120E+00  0.1120E+00
     18.313  0.0000E+00  0.0000E+00  0.1120E+00  0.1120E+00
     18.432  0.0000E+00  0.0000E+00  0.1120E+00  0.1120E+00
     18.552  0.0000E+00  0.0000E+00  0.1120E+00  0.1120E+00
     18.672  0.0000E+00  0.0000E+00  0.1120E+00  0.1120E+00
     18.791  0.0000E+00  0.0000E+00  0.1120E+00  0.1120E+00
     18.911  0.0000E+00  0.0000E+00  0.1120E+00  0.1120E+00
     19.031  0.0000E+00  0.0000E+00  0.1120E+00  0.1120E+00
     19.150  0.0000E+00  0.0000E+00  0.1120E+00  0.1120E+00
     19.270  0.0000E+00  0.0000E+00  0.1120E+00  0.1120E+00
     19.390  0.0000E+00  0.0000E+00  0.1120E+00  0.1120E+00
