 running on   64 total cores
 distrk:  each k-point on   64 cores,    1 groups
 distr:  one band on    8 cores,    8 groups
 using from now: INCAR     
 vasp.5.4.1 05Feb16 (build Apr 23 2022 14:15:44) complex                        
  
 POSCAR found type information on POSCAR  Mo O  Li
 POSCAR found :  3 types and      14 ions
 scaLAPACK will be used
 LDA part: xc-table for Pade appr. of Perdew
 POSCAR found type information on POSCAR  Mo O  Li
 POSCAR found :  3 types and      14 ions
 POSCAR, INCAR and KPOINTS ok, starting setup
 WARNING: small aliasing (wrap around) errors must be expected
 FFT: planning ...
 WAVECAR not read
 WARNING: random wavefunctions but no delay for mixing, default for NELMDL
 entering main loop
       N       E                     dE             d eps       ncg     rms          rms(c)
RMM:   1     0.896962849530E+03    0.89696E+03   -0.30274E+04 19264   0.119E+03
RMM:   2     0.174878247289E+03   -0.72208E+03   -0.72216E+03 19264   0.299E+02
RMM:   3    -0.421665025185E+02   -0.21704E+03   -0.19914E+03 19264   0.145E+02
RMM:   4    -0.106020114016E+03   -0.63854E+02   -0.49179E+02 19264   0.831E+01
RMM:   5    -0.121850535167E+03   -0.15830E+02   -0.12187E+02 19264   0.391E+01
RMM:   6    -0.125888883821E+03   -0.40383E+01   -0.33146E+01 19264   0.198E+01
RMM:   7    -0.127085505287E+03   -0.11966E+01   -0.10298E+01 19264   0.990E+00
RMM:   8    -0.127489938249E+03   -0.40443E+00   -0.35462E+00 19264   0.535E+00
RMM:   9    -0.127735067048E+03   -0.24513E+00   -0.22963E+00 39650   0.286E+00
RMM:  10    -0.127745292038E+03   -0.10225E-01   -0.24038E-01 40132   0.679E-01
RMM:  11    -0.127745591444E+03   -0.29941E-03   -0.12716E-02 40855   0.172E-01
RMM:  12    -0.127745655716E+03   -0.64273E-04   -0.96956E-04 37896   0.389E-02    0.746E+01
RMM:  13    -0.113446852016E+03    0.14299E+02   -0.72837E+01 38528   0.281E+01    0.253E+01
RMM:  14    -0.112557162166E+03    0.88969E+00   -0.47480E+00 38528   0.832E+00    0.175E+01
RMM:  15    -0.112343047707E+03    0.21411E+00   -0.78794E-01 38528   0.319E+00    0.179E+00
RMM:  16    -0.112358544297E+03   -0.15497E-01   -0.42884E-02 38530   0.729E-01    0.118E+00
RMM:  17    -0.112341316308E+03    0.17228E-01   -0.10609E-02 38528   0.312E-01    0.525E-01
RMM:  18    -0.112338964038E+03    0.23523E-02   -0.45629E-03 38528   0.255E-01    0.341E-01
RMM:  19    -0.112339275214E+03   -0.31118E-03   -0.43650E-03 38528   0.252E-01    0.826E-02
RMM:  20    -0.112339395045E+03   -0.11983E-03   -0.99745E-05 38533   0.417E-02    0.370E-02
RMM:  21    -0.112339424789E+03   -0.29744E-04   -0.19075E-05 38506   0.171E-02    0.317E-02
RMM:  22    -0.112339452505E+03   -0.27716E-04   -0.36491E-05 38528   0.246E-02    0.176E-02
RMM:  23    -0.112339462289E+03   -0.97842E-05   -0.12143E-05 36544   0.136E-02    0.110E-02
RMM:  24    -0.112339462424E+03   -0.13428E-06   -0.18844E-06 26437   0.543E-03
   1 F= -.11619650E+03 E0= -.11619505E+03  d E =-.116197E+03  mag=    -0.0093
 curvature:   0.00 expect dE= 0.000E+00 dE for cont linesearch  0.000E+00
 trial: gam= 0.00000 g(F)=  0.457E-02 g(S)=  0.130E-02 ort = 0.000E+00 (trialstep = 0.100E+01)
 search vector abs. value=  0.587E-02
 bond charge predicted
       N       E                     dE             d eps       ncg     rms          rms(c)
RMM:   1    -0.112341960509E+03   -0.24982E-02   -0.10803E+00 38528   0.414E+00    0.452E-01
RMM:   2    -0.112339811740E+03    0.21488E-02   -0.34278E-03 38528   0.246E-01    0.295E-01
RMM:   3    -0.112339435520E+03    0.37622E-03   -0.95503E-04 38528   0.115E-01    0.120E-01
RMM:   4    -0.112339371156E+03    0.64364E-04   -0.24431E-04 38528   0.486E-02    0.894E-02
RMM:   5    -0.112339253084E+03    0.11807E-03   -0.51684E-05 38528   0.230E-02    0.166E-02
RMM:   6    -0.112339247381E+03    0.57027E-05   -0.48331E-06 35770   0.751E-03    0.116E-02
RMM:   7    -0.112339246121E+03    0.12603E-05   -0.36027E-06 33922   0.665E-03    0.709E-03
RMM:   8    -0.112339245959E+03    0.16220E-06   -0.24311E-07 23146   0.221E-03
   2 F= -.11619744E+03 E0= -.11619614E+03  d E =-.937771E-03  mag=    -0.0007
 trial-energy change:   -0.000938  1 .order   -0.000884   -0.005874    0.004107
 step:   0.5964(harm=  0.5885)  dis= 0.00293  next Energy=  -116.198267 (dE=-0.176E-02)
 bond charge predicted
       N       E                     dE             d eps       ncg     rms          rms(c)
RMM:   1    -0.112340983331E+03   -0.17372E-02   -0.17597E-01 38528   0.167E+00    0.183E-01
RMM:   2    -0.112340638219E+03    0.34511E-03   -0.54423E-04 38528   0.981E-02    0.120E-01
RMM:   3    -0.112340556989E+03    0.81230E-04   -0.15847E-04 38528   0.475E-02    0.302E-02
RMM:   4    -0.112340563485E+03   -0.64958E-05   -0.25765E-05 38528   0.160E-02    0.337E-02
RMM:   5    -0.112340546293E+03    0.17192E-04   -0.66430E-06 35282   0.773E-03    0.692E-03
RMM:   6    -0.112340545486E+03    0.80771E-06   -0.55690E-07 23813   0.257E-03
   3 F= -.11619827E+03 E0= -.11619692E+03  d E =-.176882E-02  mag=    -0.0001
 curvature:  -0.29 expect dE=-0.161E-03 dE for cont linesearch -0.914E-08
 trial: gam= 0.09111 g(F)=  0.485E-03 g(S)=  0.641E-04 ort = 0.135E-04 (trialstep = 0.919E+00)
 search vector abs. value=  0.600E-03
 bond charge predicted
       N       E                     dE             d eps       ncg     rms          rms(c)
RMM:   1    -0.112342918432E+03   -0.23721E-02   -0.11655E-01 38528   0.140E+00    0.126E-01
RMM:   2    -0.112342641031E+03    0.27740E-03   -0.59912E-04 38528   0.966E-02    0.989E-02
RMM:   3    -0.112342615847E+03    0.25184E-04   -0.30781E-05 38529   0.190E-02    0.479E-02
RMM:   4    -0.112342629666E+03   -0.13820E-04   -0.33588E-05 38528   0.193E-02    0.401E-02
RMM:   5    -0.112342605113E+03    0.24554E-04   -0.10572E-05 36044   0.985E-03    0.630E-03
RMM:   6    -0.112342604089E+03    0.10234E-05   -0.56028E-07 23874   0.249E-03    0.428E-03
RMM:   7    -0.112342603644E+03    0.44579E-06   -0.25601E-07 22012   0.205E-03
   4 F= -.11619850E+03 E0= -.11619715E+03  d E =-.224083E-03  mag=    -0.0000
 trial-energy change:   -0.000224  1 .order   -0.000230   -0.000506    0.000046
 step:   0.8382(harm=  0.8429)  dis= 0.00109  next Energy=  -116.198499 (dE=-0.226E-03)
 bond charge predicted
       N       E                     dE             d eps       ncg     rms          rms(c)
RMM:   1    -0.112342445733E+03    0.15836E-03   -0.90194E-04 38528   0.123E-01    0.108E-02
RMM:   2    -0.112342443965E+03    0.17686E-05   -0.45817E-06 35056   0.847E-03    0.845E-03
RMM:   3    -0.112342443812E+03    0.15315E-06   -0.24559E-07 20484   0.193E-03
   5 F= -.11619850E+03 E0= -.11619715E+03  d E =-.225881E-03  mag=    -0.0000
 curvature:  -0.46 expect dE=-0.125E-03 dE for cont linesearch -0.238E-08
 trial: gam= 0.49382 g(F)=  0.169E-03 g(S)=  0.104E-03 ort = 0.177E-05 (trialstep = 0.903E+00)
 search vector abs. value=  0.421E-03
 bond charge predicted
       N       E                     dE             d eps       ncg     rms          rms(c)
RMM:   1    -0.112340627710E+03    0.18163E-02   -0.75420E-02 38528   0.115E+00    0.112E-01
RMM:   2    -0.112340408616E+03    0.21909E-03   -0.51864E-04 38528   0.880E-02    0.789E-02
RMM:   3    -0.112340391762E+03    0.16854E-04   -0.32838E-05 38529   0.184E-02    0.395E-02
RMM:   4    -0.112340400661E+03   -0.88992E-05   -0.26436E-05 38528   0.157E-02    0.386E-02
RMM:   5    -0.112340380695E+03    0.19966E-04   -0.12058E-05 38528   0.115E-02    0.601E-03
RMM:   6    -0.112340379978E+03    0.71678E-06   -0.46698E-07 22905   0.221E-03
   6 F= -.11619864E+03 E0= -.11619731E+03  d E =-.140171E-03  mag=    -0.0000
 trial-energy change:   -0.000140  1 .order   -0.000128   -0.000247   -0.000009
 step:   0.9301(harm=  0.9384)  dis= 0.00105  next Energy=  -116.198639 (dE=-0.140E-03)
 bond charge predicted
       N       E                     dE             d eps       ncg     rms          rms(c)
RMM:   1    -0.112340314828E+03    0.65867E-04   -0.69177E-05 38528   0.346E-02    0.432E-03
RMM:   2    -0.112340314826E+03    0.23829E-08   -0.39709E-07 21172   0.261E-03
   7 F= -.11619864E+03 E0= -.11619731E+03  d E =-.140989E-03  mag=    -0.0000
 curvature:  -0.68 expect dE=-0.678E-04 dE for cont linesearch -0.172E-06
 trial: gam= 0.32365 g(F)=  0.463E-04 g(S)=  0.532E-04 ort = 0.103E-04 (trialstep = 0.908E+00)
 search vector abs. value=  0.150E-03
 bond charge predicted
       N       E                     dE             d eps       ncg     rms          rms(c)
RMM:   1    -0.112341979213E+03   -0.16644E-02   -0.22729E-02 38528   0.634E-01    0.840E-02
RMM:   2    -0.112341884580E+03    0.94633E-04   -0.24395E-04 38528   0.586E-02    0.609E-02
RMM:   3    -0.112341873780E+03    0.10800E-04   -0.11876E-05 37853   0.117E-02    0.290E-02
RMM:   4    -0.112341880662E+03   -0.68812E-05   -0.13234E-05 38528   0.117E-02    0.291E-02
RMM:   5    -0.112341868059E+03    0.12603E-04   -0.59811E-06 35182   0.793E-03    0.568E-03
RMM:   6    -0.112341867268E+03    0.79099E-06   -0.36782E-07 22127   0.214E-03
   8 F= -.11619869E+03 E0= -.11619736E+03  d E =-.483983E-04  mag=     0.0000
 trial-energy change:   -0.000048  1 .order   -0.000052   -0.000093   -0.000010
 step:   1.0155(harm=  1.0155)  dis= 0.00080  next Energy=  -116.198692 (dE=-0.523E-04)
 bond charge predicted
       N       E                     dE             d eps       ncg     rms          rms(c)
RMM:   1    -0.112342045631E+03   -0.17757E-03   -0.31685E-04 38528   0.747E-02    0.105E-02
RMM:   2    -0.112342044047E+03    0.15845E-05   -0.31104E-06 30644   0.680E-03    0.743E-03
RMM:   3    -0.112342043881E+03    0.16529E-06   -0.27406E-07 20778   0.213E-03
   9 F= -.11619869E+03 E0= -.11619736E+03  d E =-.478859E-04  mag=     0.0000
 curvature:  -0.74 expect dE=-0.300E-04 dE for cont linesearch -0.911E-07
 trial: gam= 0.39068 g(F)=  0.324E-04 g(S)=  0.804E-05 ort = 0.430E-05 (trialstep = 0.930E+00)
 search vector abs. value=  0.668E-04
 bond charge predicted
       N       E                     dE             d eps       ncg     rms          rms(c)
RMM:   1    -0.112341892957E+03    0.15109E-03   -0.13573E-02 38528   0.483E-01    0.242E-02
RMM:   2    -0.112341862687E+03    0.30270E-04   -0.53649E-05 38519   0.290E-02    0.187E-02
RMM:   3    -0.112341861002E+03    0.16849E-05   -0.35865E-06 30307   0.572E-03    0.145E-02
RMM:   4    -0.112341858396E+03    0.26058E-05   -0.35443E-06 32439   0.730E-03    0.325E-03
RMM:   5    -0.112341858423E+03   -0.26940E-07   -0.35489E-07 21248   0.242E-03
  10 F= -.11619872E+03 E0= -.11619739E+03  d E =-.278784E-04  mag=     0.0000
 trial-energy change:   -0.000028  1 .order   -0.000028   -0.000039   -0.000016
 step:   1.5994(harm=  1.5994)  dis= 0.00091  next Energy=  -116.198721 (dE=-0.337E-04)
 reached required accuracy - stopping structural energy minimisation
