  14  14   0   0
  0.1005986E+02  0.5484803E-09  0.5007487E-09  0.5846960E-09  0.5000000E-15
  1.000000000000000E-004
  CAR 
 unknown system                          
     18.76872418    -16.48503219  301      5.83559280      1.00000000
    -16.485  0.0000E+00  0.0000E+00  0.0000E+00  0.0000E+00
    -16.368  0.0000E+00  0.0000E+00  0.0000E+00  0.0000E+00
    -16.250  0.0000E+00  0.0000E+00  0.0000E+00  0.0000E+00
    -16.132  0.0000E+00  0.0000E+00  0.0000E+00  0.0000E+00
    -16.015  0.0000E+00  0.0000E+00  0.0000E+00  0.0000E+00
    -15.897  0.0000E+00  0.0000E+00  0.0000E+00  0.0000E+00
    -15.780  0.0000E+00  0.0000E+00  0.0000E+00  0.0000E+00
    -15.662  0.0000E+00  0.0000E+00  0.0000E+00  0.0000E+00
    -15.545  0.0000E+00  0.0000E+00  0.0000E+00  0.0000E+00
    -15.427  0.0000E+00  0.0000E+00  0.0000E+00  0.0000E+00
    -15.310  0.0000E+00  0.0000E+00  0.0000E+00  0.0000E+00
    -15.192  0.0000E+00  0.0000E+00  0.0000E+00  0.0000E+00
    -15.075  0.0000E+00  0.0000E+00  0.0000E+00  0.0000E+00
    -14.957  0.1050E-07  0.1050E-07  0.1234E-08  0.1234E-08
    -14.840  0.1867E-03  0.1867E-03  0.2194E-04  0.2194E-04
    -14.722  0.1185E-02  0.1185E-02  0.1612E-03  0.1612E-03
    -14.605  0.2628E-02  0.2628E-02  0.4700E-03  0.4700E-03
    -14.487  0.4676E-02  0.4676E-02  0.1019E-02  0.1019E-02
    -14.370  0.7450E-02  0.7450E-02  0.1895E-02  0.1895E-02
    -14.252  0.1002E-01  0.1002E-01  0.3072E-02  0.3072E-02
    -14.135  0.2818E-01  0.2818E-01  0.6384E-02  0.6384E-02
    -14.017  0.1370E-01  0.1370E-01  0.7994E-02  0.7994E-02
    -13.900  0.5115E-04  0.5115E-04  0.8000E-02  0.8000E-02
    -13.782  0.3238E-07  0.3238E-07  0.8000E-02  0.8000E-02
    -13.665  0.1259E-02  0.1259E-02  0.8148E-02  0.8148E-02
    -13.547  0.1510E-01  0.1510E-01  0.9923E-02  0.9923E-02
    -13.430  0.2603E-01  0.2603E-01  0.1298E-01  0.1298E-01
    -13.312  0.1694E-01  0.1694E-01  0.1497E-01  0.1497E-01
    -13.195  0.7851E-02  0.7851E-02  0.1590E-01  0.1590E-01
    -13.077  0.8925E-03  0.8925E-03  0.1600E-01  0.1600E-01
    -12.960  0.1353E-06  0.1353E-06  0.1600E-01  0.1600E-01
    -12.842  0.0000E+00  0.0000E+00  0.1600E-01  0.1600E-01
    -12.725  0.0000E+00  0.0000E+00  0.1600E-01  0.1600E-01
    -12.607  0.0000E+00  0.0000E+00  0.1600E-01  0.1600E-01
    -12.490  0.0000E+00  0.0000E+00  0.1600E-01  0.1600E-01
    -12.372  0.0000E+00  0.0000E+00  0.1600E-01  0.1600E-01
    -12.255  0.0000E+00  0.0000E+00  0.1600E-01  0.1600E-01
    -12.137  0.0000E+00  0.0000E+00  0.1600E-01  0.1600E-01
    -12.020  0.0000E+00  0.0000E+00  0.1600E-01  0.1600E-01
    -11.902  0.0000E+00  0.0000E+00  0.1600E-01  0.1600E-01
    -11.785  0.0000E+00  0.0000E+00  0.1600E-01  0.1600E-01
    -11.667  0.0000E+00  0.0000E+00  0.1600E-01  0.1600E-01
    -11.550  0.0000E+00  0.0000E+00  0.1600E-01  0.1600E-01
    -11.432  0.0000E+00  0.0000E+00  0.1600E-01  0.1600E-01
    -11.314  0.0000E+00  0.0000E+00  0.1600E-01  0.1600E-01
    -11.197  0.0000E+00  0.0000E+00  0.1600E-01  0.1600E-01
    -11.079  0.0000E+00  0.0000E+00  0.1600E-01  0.1600E-01
    -10.962  0.0000E+00  0.0000E+00  0.1600E-01  0.1600E-01
    -10.844  0.0000E+00  0.0000E+00  0.1600E-01  0.1600E-01
    -10.727  0.0000E+00  0.0000E+00  0.1600E-01  0.1600E-01
    -10.609  0.0000E+00  0.0000E+00  0.1600E-01  0.1600E-01
    -10.492  0.0000E+00  0.0000E+00  0.1600E-01  0.1600E-01
    -10.374  0.0000E+00  0.0000E+00  0.1600E-01  0.1600E-01
    -10.257  0.0000E+00  0.0000E+00  0.1600E-01  0.1600E-01
    -10.139  0.0000E+00  0.0000E+00  0.1600E-01  0.1600E-01
    -10.022  0.0000E+00  0.0000E+00  0.1600E-01  0.1600E-01
     -9.904  0.0000E+00  0.0000E+00  0.1600E-01  0.1600E-01
     -9.787  0.0000E+00  0.0000E+00  0.1600E-01  0.1600E-01
     -9.669  0.0000E+00  0.0000E+00  0.1600E-01  0.1600E-01
     -9.552  0.0000E+00  0.0000E+00  0.1600E-01  0.1600E-01
     -9.434  0.0000E+00  0.0000E+00  0.1600E-01  0.1600E-01
     -9.317  0.0000E+00  0.0000E+00  0.1600E-01  0.1600E-01
     -9.199  0.0000E+00  0.0000E+00  0.1600E-01  0.1600E-01
     -9.082  0.0000E+00  0.0000E+00  0.1600E-01  0.1600E-01
     -8.964  0.0000E+00  0.0000E+00  0.1600E-01  0.1600E-01
     -8.847  0.0000E+00  0.0000E+00  0.1600E-01  0.1600E-01
     -8.729  0.0000E+00  0.0000E+00  0.1600E-01  0.1600E-01
     -8.612  0.0000E+00  0.0000E+00  0.1600E-01  0.1600E-01
     -8.494  0.0000E+00  0.0000E+00  0.1600E-01  0.1600E-01
     -8.377  0.0000E+00  0.0000E+00  0.1600E-01  0.1600E-01
     -8.259  0.0000E+00  0.0000E+00  0.1600E-01  0.1600E-01
     -8.142  0.0000E+00  0.0000E+00  0.1600E-01  0.1600E-01
     -8.024  0.0000E+00  0.0000E+00  0.1600E-01  0.1600E-01
     -7.907  0.0000E+00  0.0000E+00  0.1600E-01  0.1600E-01
     -7.789  0.0000E+00  0.0000E+00  0.1600E-01  0.1600E-01
     -7.672  0.0000E+00  0.0000E+00  0.1600E-01  0.1600E-01
     -7.554  0.0000E+00  0.0000E+00  0.1600E-01  0.1600E-01
     -7.437  0.0000E+00  0.0000E+00  0.1600E-01  0.1600E-01
     -7.319  0.0000E+00  0.0000E+00  0.1600E-01  0.1600E-01
     -7.202  0.0000E+00  0.0000E+00  0.1600E-01  0.1600E-01
     -7.084  0.0000E+00  0.0000E+00  0.1600E-01  0.1600E-01
     -6.967  0.0000E+00  0.0000E+00  0.1600E-01  0.1600E-01
     -6.849  0.0000E+00  0.0000E+00  0.1600E-01  0.1600E-01
     -6.731  0.0000E+00  0.0000E+00  0.1600E-01  0.1600E-01
     -6.614  0.0000E+00  0.0000E+00  0.1600E-01  0.1600E-01
     -6.496  0.0000E+00  0.0000E+00  0.1600E-01  0.1600E-01
     -6.379  0.0000E+00  0.0000E+00  0.1600E-01  0.1600E-01
     -6.261  0.0000E+00  0.0000E+00  0.1600E-01  0.1600E-01
     -6.144  0.0000E+00  0.0000E+00  0.1600E-01  0.1600E-01
     -6.026  0.0000E+00  0.0000E+00  0.1600E-01  0.1600E-01
     -5.909  0.0000E+00  0.0000E+00  0.1600E-01  0.1600E-01
     -5.791  0.0000E+00  0.0000E+00  0.1600E-01  0.1600E-01
     -5.674  0.0000E+00  0.0000E+00  0.1600E-01  0.1600E-01
     -5.556  0.0000E+00  0.0000E+00  0.1600E-01  0.1600E-01
     -5.439  0.0000E+00  0.0000E+00  0.1600E-01  0.1600E-01
     -5.321  0.0000E+00  0.0000E+00  0.1600E-01  0.1600E-01
     -5.204  0.0000E+00  0.0000E+00  0.1600E-01  0.1600E-01
     -5.086  0.0000E+00  0.0000E+00  0.1600E-01  0.1600E-01
     -4.969  0.0000E+00  0.0000E+00  0.1600E-01  0.1600E-01
     -4.851  0.0000E+00  0.0000E+00  0.1600E-01  0.1600E-01
     -4.734  0.0000E+00  0.0000E+00  0.1600E-01  0.1600E-01
     -4.616  0.0000E+00  0.0000E+00  0.1600E-01  0.1600E-01
     -4.499  0.0000E+00  0.0000E+00  0.1600E-01  0.1600E-01
     -4.381  0.0000E+00  0.0000E+00  0.1600E-01  0.1600E-01
     -4.264  0.0000E+00  0.0000E+00  0.1600E-01  0.1600E-01
     -4.146  0.0000E+00  0.0000E+00  0.1600E-01  0.1600E-01
     -4.029  0.0000E+00  0.0000E+00  0.1600E-01  0.1600E-01
     -3.911  0.0000E+00  0.0000E+00  0.1600E-01  0.1600E-01
     -3.794  0.0000E+00  0.0000E+00  0.1600E-01  0.1600E-01
     -3.676  0.0000E+00  0.0000E+00  0.1600E-01  0.1600E-01
     -3.559  0.0000E+00  0.0000E+00  0.1600E-01  0.1600E-01
     -3.441  0.0000E+00  0.0000E+00  0.1600E-01  0.1600E-01
     -3.324  0.0000E+00  0.0000E+00  0.1600E-01  0.1600E-01
     -3.206  0.0000E+00  0.0000E+00  0.1600E-01  0.1600E-01
     -3.089  0.0000E+00  0.0000E+00  0.1600E-01  0.1600E-01
     -2.971  0.0000E+00  0.0000E+00  0.1600E-01  0.1600E-01
     -2.854  0.0000E+00  0.0000E+00  0.1600E-01  0.1600E-01
     -2.736  0.0000E+00  0.0000E+00  0.1600E-01  0.1600E-01
     -2.619  0.4632E-09  0.4632E-09  0.1600E-01  0.1600E-01
     -2.501  0.5613E-03  0.5613E-03  0.1607E-01  0.1607E-01
     -2.384  0.7066E-02  0.7066E-02  0.1690E-01  0.1690E-01
     -2.266  0.1318E-01  0.1318E-01  0.1844E-01  0.1844E-01
     -2.149  0.1390E-01  0.1390E-01  0.2008E-01  0.2008E-01
     -2.031  0.1244E-01  0.1244E-01  0.2154E-01  0.2154E-01
     -1.913  0.8070E-02  0.8070E-02  0.2249E-01  0.2249E-01
     -1.796  0.9230E-02  0.9230E-02  0.2357E-01  0.2357E-01
     -1.678  0.1109E-01  0.1109E-01  0.2488E-01  0.2488E-01
     -1.561  0.8802E-02  0.8802E-02  0.2591E-01  0.2591E-01
     -1.443  0.8472E-02  0.8472E-02  0.2691E-01  0.2691E-01
     -1.326  0.8101E-02  0.8101E-02  0.2786E-01  0.2786E-01
     -1.208  0.1016E-01  0.1016E-01  0.2905E-01  0.2905E-01
     -1.091  0.9078E-02  0.9078E-02  0.3012E-01  0.3012E-01
     -0.973  0.1101E-01  0.1101E-01  0.3141E-01  0.3141E-01
     -0.856  0.8140E-02  0.8140E-02  0.3237E-01  0.3237E-01
     -0.738  0.6853E-02  0.6853E-02  0.3317E-01  0.3317E-01
     -0.621  0.6330E-02  0.6330E-02  0.3392E-01  0.3392E-01
     -0.503  0.7924E-02  0.7924E-02  0.3485E-01  0.3485E-01
     -0.386  0.7589E-02  0.7589E-02  0.3574E-01  0.3574E-01
     -0.268  0.8485E-02  0.8485E-02  0.3674E-01  0.3674E-01
     -0.151  0.8816E-02  0.8816E-02  0.3777E-01  0.3777E-01
     -0.033  0.9023E-02  0.9023E-02  0.3883E-01  0.3883E-01
      0.084  0.8423E-02  0.8423E-02  0.3982E-01  0.3982E-01
      0.202  0.8783E-02  0.8783E-02  0.4086E-01  0.4086E-01
      0.319  0.8849E-02  0.8849E-02  0.4190E-01  0.4190E-01
      0.437  0.1159E-01  0.1159E-01  0.4326E-01  0.4326E-01
      0.554  0.1202E-01  0.1202E-01  0.4467E-01  0.4467E-01
      0.672  0.1121E-01  0.1121E-01  0.4599E-01  0.4599E-01
      0.789  0.1431E-01  0.1431E-01  0.4767E-01  0.4767E-01
      0.907  0.1252E-01  0.1252E-01  0.4914E-01  0.4914E-01
      1.024  0.1081E-01  0.1081E-01  0.5041E-01  0.5041E-01
      1.142  0.1033E-01  0.1033E-01  0.5162E-01  0.5162E-01
      1.259  0.1035E-01  0.1035E-01  0.5284E-01  0.5284E-01
      1.377  0.1069E-01  0.1069E-01  0.5410E-01  0.5410E-01
      1.494  0.8489E-02  0.8489E-02  0.5509E-01  0.5509E-01
      1.612  0.8028E-02  0.8028E-02  0.5604E-01  0.5604E-01
      1.729  0.1239E-01  0.1239E-01  0.5749E-01  0.5749E-01
      1.847  0.1344E-01  0.1344E-01  0.5907E-01  0.5907E-01
      1.964  0.1114E-01  0.1114E-01  0.6038E-01  0.6038E-01
      2.082  0.1075E-01  0.1075E-01  0.6165E-01  0.6165E-01
      2.199  0.6680E-02  0.6680E-02  0.6243E-01  0.6243E-01
      2.317  0.5561E-02  0.5561E-02  0.6308E-01  0.6308E-01
      2.434  0.3992E-02  0.3992E-02  0.6355E-01  0.6355E-01
      2.552  0.2875E-02  0.2875E-02  0.6389E-01  0.6389E-01
      2.670  0.8783E-03  0.8783E-03  0.6399E-01  0.6399E-01
      2.787  0.4984E-04  0.4984E-04  0.6400E-01  0.6400E-01
      2.905  0.1741E-08  0.1741E-08  0.6400E-01  0.6400E-01
      3.022  0.3962E-04  0.3962E-04  0.6400E-01  0.6400E-01
      3.140  0.1495E-03  0.1495E-03  0.6402E-01  0.6402E-01
      3.257  0.1073E-02  0.1073E-02  0.6415E-01  0.6415E-01
      3.375  0.3043E-02  0.3043E-02  0.6451E-01  0.6451E-01
      3.492  0.1994E-02  0.1994E-02  0.6474E-01  0.6474E-01
      3.610  0.5261E-02  0.5261E-02  0.6536E-01  0.6536E-01
      3.727  0.6079E-02  0.6079E-02  0.6607E-01  0.6607E-01
      3.845  0.7253E-02  0.7253E-02  0.6693E-01  0.6693E-01
      3.962  0.5742E-02  0.5742E-02  0.6760E-01  0.6760E-01
      4.080  0.3562E-02  0.3562E-02  0.6802E-01  0.6802E-01
      4.197  0.1020E-02  0.1020E-02  0.6814E-01  0.6814E-01
      4.315  0.1703E-02  0.1703E-02  0.6834E-01  0.6834E-01
      4.432  0.2854E-02  0.2854E-02  0.6867E-01  0.6867E-01
      4.550  0.5758E-02  0.5758E-02  0.6935E-01  0.6935E-01
      4.667  0.6167E-02  0.6167E-02  0.7008E-01  0.7008E-01
      4.785  0.8579E-02  0.8579E-02  0.7108E-01  0.7108E-01
      4.902  0.4373E-02  0.4373E-02  0.7160E-01  0.7160E-01
      5.020  0.2889E-02  0.2889E-02  0.7194E-01  0.7194E-01
      5.137  0.2034E-02  0.2034E-02  0.7218E-01  0.7218E-01
      5.255  0.1566E-02  0.1566E-02  0.7236E-01  0.7236E-01
      5.372  0.1799E-02  0.1799E-02  0.7257E-01  0.7257E-01
      5.490  0.2318E-02  0.2318E-02  0.7284E-01  0.7284E-01
      5.607  0.2690E-02  0.2690E-02  0.7316E-01  0.7316E-01
      5.725  0.2637E-02  0.2637E-02  0.7347E-01  0.7347E-01
      5.842  0.4853E-02  0.4853E-02  0.7404E-01  0.7404E-01
      5.960  0.5773E-02  0.5773E-02  0.7472E-01  0.7472E-01
      6.077  0.5784E-02  0.5784E-02  0.7540E-01  0.7540E-01
      6.195  0.6528E-02  0.6528E-02  0.7617E-01  0.7617E-01
      6.312  0.8594E-02  0.8594E-02  0.7717E-01  0.7717E-01
      6.430  0.7040E-02  0.7040E-02  0.7800E-01  0.7800E-01
      6.547  0.7442E-02  0.7442E-02  0.7888E-01  0.7888E-01
      6.665  0.1097E-01  0.1097E-01  0.8017E-01  0.8017E-01
      6.782  0.8744E-02  0.8744E-02  0.8119E-01  0.8119E-01
      6.900  0.9173E-02  0.9173E-02  0.8227E-01  0.8227E-01
      7.017  0.6521E-02  0.6521E-02  0.8304E-01  0.8304E-01
      7.135  0.2232E-02  0.2232E-02  0.8330E-01  0.8330E-01
      7.252  0.3684E-02  0.3684E-02  0.8373E-01  0.8373E-01
      7.370  0.4910E-02  0.4910E-02  0.8431E-01  0.8431E-01
      7.488  0.5148E-02  0.5148E-02  0.8491E-01  0.8491E-01
      7.605  0.4345E-02  0.4345E-02  0.8543E-01  0.8543E-01
      7.723  0.2406E-02  0.2406E-02  0.8571E-01  0.8571E-01
      7.840  0.3724E-02  0.3724E-02  0.8615E-01  0.8615E-01
      7.958  0.5540E-02  0.5540E-02  0.8680E-01  0.8680E-01
      8.075  0.4463E-02  0.4463E-02  0.8732E-01  0.8732E-01
      8.193  0.4373E-02  0.4373E-02  0.8784E-01  0.8784E-01
      8.310  0.5586E-02  0.5586E-02  0.8849E-01  0.8849E-01
      8.428  0.4659E-02  0.4659E-02  0.8904E-01  0.8904E-01
      8.545  0.8275E-02  0.8275E-02  0.9001E-01  0.9001E-01
      8.663  0.6484E-02  0.6484E-02  0.9077E-01  0.9077E-01
      8.780  0.5899E-02  0.5899E-02  0.9147E-01  0.9147E-01
      8.898  0.7460E-02  0.7460E-02  0.9234E-01  0.9234E-01
      9.015  0.6604E-02  0.6604E-02  0.9312E-01  0.9312E-01
      9.133  0.5752E-02  0.5752E-02  0.9380E-01  0.9380E-01
      9.250  0.6712E-02  0.6712E-02  0.9458E-01  0.9458E-01
      9.368  0.6316E-02  0.6316E-02  0.9533E-01  0.9533E-01
      9.485  0.6255E-02  0.6255E-02  0.9606E-01  0.9606E-01
      9.603  0.9382E-02  0.9382E-02  0.9716E-01  0.9716E-01
      9.720  0.8455E-02  0.8455E-02  0.9816E-01  0.9816E-01
      9.838  0.3294E-02  0.3294E-02  0.9854E-01  0.9854E-01
      9.955  0.3213E-02  0.3213E-02  0.9892E-01  0.9892E-01
     10.073  0.3200E-02  0.3200E-02  0.9930E-01  0.9930E-01
     10.190  0.2776E-02  0.2776E-02  0.9962E-01  0.9962E-01
     10.308  0.3153E-02  0.3153E-02  0.9999E-01  0.9999E-01
     10.425  0.3278E-02  0.3278E-02  0.1004E+00  0.1004E+00
     10.543  0.3361E-02  0.3361E-02  0.1008E+00  0.1008E+00
     10.660  0.3943E-02  0.3943E-02  0.1012E+00  0.1012E+00
     10.778  0.3115E-02  0.3115E-02  0.1016E+00  0.1016E+00
     10.895  0.3641E-02  0.3641E-02  0.1020E+00  0.1020E+00
     11.013  0.5287E-02  0.5287E-02  0.1027E+00  0.1027E+00
     11.130  0.3720E-02  0.3720E-02  0.1031E+00  0.1031E+00
     11.248  0.5685E-02  0.5685E-02  0.1038E+00  0.1038E+00
     11.365  0.4025E-02  0.4025E-02  0.1042E+00  0.1042E+00
     11.483  0.1786E-02  0.1786E-02  0.1044E+00  0.1044E+00
     11.600  0.1640E-02  0.1640E-02  0.1046E+00  0.1046E+00
     11.718  0.1200E-02  0.1200E-02  0.1048E+00  0.1048E+00
     11.835  0.6269E-03  0.6269E-03  0.1048E+00  0.1048E+00
     11.953  0.7023E-03  0.7023E-03  0.1049E+00  0.1049E+00
     12.071  0.1175E-02  0.1175E-02  0.1051E+00  0.1051E+00
     12.188  0.1031E-02  0.1031E-02  0.1052E+00  0.1052E+00
     12.306  0.1508E-02  0.1508E-02  0.1054E+00  0.1054E+00
     12.423  0.1766E-02  0.1766E-02  0.1056E+00  0.1056E+00
     12.541  0.8360E-03  0.8360E-03  0.1057E+00  0.1057E+00
     12.658  0.1404E-02  0.1404E-02  0.1058E+00  0.1058E+00
     12.776  0.1541E-02  0.1541E-02  0.1060E+00  0.1060E+00
     12.893  0.2003E-02  0.2003E-02  0.1063E+00  0.1063E+00
     13.011  0.2684E-02  0.2684E-02  0.1066E+00  0.1066E+00
     13.128  0.2546E-02  0.2546E-02  0.1069E+00  0.1069E+00
     13.246  0.2181E-02  0.2190E-02  0.1071E+00  0.1071E+00
     13.363  0.3782E-02  0.3793E-02  0.1076E+00  0.1076E+00
     13.481  0.3030E-02  0.3033E-02  0.1079E+00  0.1079E+00
     13.598  0.3279E-02  0.3250E-02  0.1083E+00  0.1083E+00
     13.716  0.4191E-02  0.3879E-02  0.1088E+00  0.1088E+00
     13.833  0.3068E-02  0.2982E-02  0.1092E+00  0.1091E+00
     13.951  0.3360E-02  0.3425E-02  0.1096E+00  0.1095E+00
     14.068  0.3504E-02  0.3245E-02  0.1100E+00  0.1099E+00
     14.186  0.3282E-02  0.3193E-02  0.1104E+00  0.1103E+00
     14.303  0.2246E-02  0.2213E-02  0.1106E+00  0.1105E+00
     14.421  0.2353E-02  0.2825E-02  0.1109E+00  0.1109E+00
     14.538  0.2244E-02  0.2274E-02  0.1112E+00  0.1111E+00
     14.656  0.1931E-02  0.1613E-02  0.1114E+00  0.1113E+00
     14.773  0.1159E-02  0.1197E-02  0.1115E+00  0.1115E+00
     14.891  0.9579E-03  0.4795E-03  0.1116E+00  0.1115E+00
     15.008  0.7967E-03  0.1109E-02  0.1117E+00  0.1117E+00
     15.126  0.1144E-02  0.9596E-03  0.1119E+00  0.1118E+00
     15.243  0.2396E-03  0.5157E-03  0.1119E+00  0.1118E+00
     15.361  0.1874E-03  0.5014E-03  0.1119E+00  0.1119E+00
     15.478  0.3220E-03  0.1840E-03  0.1120E+00  0.1119E+00
     15.596  0.1005E-03  0.1931E-03  0.1120E+00  0.1119E+00
     15.713  0.1730E-05  0.6196E-04  0.1120E+00  0.1119E+00
     15.831  0.1961E-03  0.1419E-03  0.1120E+00  0.1120E+00
     15.948  0.6944E-06  0.8833E-05  0.1120E+00  0.1120E+00
     16.066  0.0000E+00  0.9041E-04  0.1120E+00  0.1120E+00
     16.183  0.0000E+00  0.1368E-08  0.1120E+00  0.1120E+00
     16.301  0.6060E-18  0.0000E+00  0.1120E+00  0.1120E+00
     16.418  0.1475E-05  0.0000E+00  0.1120E+00  0.1120E+00
     16.536  0.9773E-04  0.2651E-12  0.1120E+00  0.1120E+00
     16.653  0.3788E-07  0.3805E-04  0.1120E+00  0.1120E+00
     16.771  0.0000E+00  0.6119E-04  0.1120E+00  0.1120E+00
     16.889  0.0000E+00  0.7838E-11  0.1120E+00  0.1120E+00
     17.006  0.0000E+00  0.1168E-04  0.1120E+00  0.1120E+00
     17.124  0.0000E+00  0.8974E-04  0.1120E+00  0.1120E+00
     17.241  0.0000E+00  0.9704E-04  0.1120E+00  0.1120E+00
     17.359  0.0000E+00  0.2100E-07  0.1120E+00  0.1120E+00
     17.476  0.0000E+00  0.0000E+00  0.1120E+00  0.1120E+00
     17.594  0.0000E+00  0.0000E+00  0.1120E+00  0.1120E+00
     17.711  0.0000E+00  0.0000E+00  0.1120E+00  0.1120E+00
     17.829  0.0000E+00  0.0000E+00  0.1120E+00  0.1120E+00
     17.946  0.0000E+00  0.0000E+00  0.1120E+00  0.1120E+00
     18.064  0.0000E+00  0.0000E+00  0.1120E+00  0.1120E+00
     18.181  0.0000E+00  0.0000E+00  0.1120E+00  0.1120E+00
     18.299  0.0000E+00  0.0000E+00  0.1120E+00  0.1120E+00
     18.416  0.0000E+00  0.0000E+00  0.1120E+00  0.1120E+00
     18.534  0.0000E+00  0.0000E+00  0.1120E+00  0.1120E+00
     18.651  0.0000E+00  0.0000E+00  0.1120E+00  0.1120E+00
     18.769  0.0000E+00  0.0000E+00  0.1120E+00  0.1120E+00
