 running on   64 total cores
 distrk:  each k-point on   64 cores,    1 groups
 distr:  one band on    8 cores,    8 groups
 using from now: INCAR     
 vasp.5.4.1 05Feb16 (build Apr 23 2022 14:15:44) complex                        
  
 POSCAR found type information on POSCAR  Mo O  Li
 POSCAR found :  3 types and      14 ions
 scaLAPACK will be used
 LDA part: xc-table for Pade appr. of Perdew
 POSCAR found type information on POSCAR  Mo O  Li
 POSCAR found :  3 types and      14 ions
 POSCAR, INCAR and KPOINTS ok, starting setup
 WARNING: small aliasing (wrap around) errors must be expected
 FFT: planning ...
 WAVECAR not read
 WARNING: random wavefunctions but no delay for mixing, default for NELMDL
 entering main loop
       N       E                     dE             d eps       ncg     rms          rms(c)
RMM:   1     0.897021012531E+03    0.89702E+03   -0.30275E+04 19264   0.119E+03
RMM:   2     0.175163891604E+03   -0.72186E+03   -0.72220E+03 19264   0.299E+02
RMM:   3    -0.422141960860E+02   -0.21738E+03   -0.19983E+03 19264   0.145E+02
RMM:   4    -0.106226167843E+03   -0.64012E+02   -0.49160E+02 19264   0.832E+01
RMM:   5    -0.121868167609E+03   -0.15642E+02   -0.12120E+02 19264   0.391E+01
RMM:   6    -0.125889239459E+03   -0.40211E+01   -0.32981E+01 19264   0.198E+01
RMM:   7    -0.127084375521E+03   -0.11951E+01   -0.10296E+01 19264   0.992E+00
RMM:   8    -0.127490477836E+03   -0.40610E+00   -0.35599E+00 19264   0.536E+00
RMM:   9    -0.127740338980E+03   -0.24986E+00   -0.23442E+00 39711   0.287E+00
RMM:  10    -0.127748742565E+03   -0.84036E-02   -0.23121E-01 40127   0.678E-01
RMM:  11    -0.127749165229E+03   -0.42266E-03   -0.12904E-02 40895   0.172E-01
RMM:  12    -0.127749239718E+03   -0.74488E-04   -0.10560E-03 37808   0.390E-02    0.746E+01
RMM:  13    -0.113447626287E+03    0.14302E+02   -0.72831E+01 38528   0.281E+01    0.253E+01
RMM:  14    -0.112559051638E+03    0.88857E+00   -0.47521E+00 38528   0.832E+00    0.175E+01
RMM:  15    -0.112383097468E+03    0.17595E+00   -0.81636E-01 38528   0.323E+00    0.233E+00
RMM:  16    -0.112379715123E+03    0.33823E-02   -0.76998E-02 38528   0.842E-01    0.168E+00
RMM:  17    -0.112341210637E+03    0.38504E-01   -0.22759E-02 38528   0.495E-01    0.497E-01
RMM:  18    -0.112338950644E+03    0.22600E-02   -0.51084E-03 38528   0.267E-01    0.341E-01
RMM:  19    -0.112339318649E+03   -0.36800E-03   -0.40837E-03 38528   0.243E-01    0.945E-02
RMM:  20    -0.112339474013E+03   -0.15536E-03   -0.14664E-04 38528   0.429E-02    0.735E-02
RMM:  21    -0.112339450553E+03    0.23460E-04   -0.41388E-05 38528   0.231E-02    0.338E-02
RMM:  22    -0.112339476560E+03   -0.26007E-04   -0.18815E-05 38435   0.166E-02    0.267E-02
RMM:  23    -0.112339502621E+03   -0.26061E-04   -0.39869E-05 38528   0.259E-02    0.110E-02
RMM:  24    -0.112339505368E+03   -0.27471E-05   -0.42799E-06 32340   0.825E-03    0.541E-03
RMM:  25    -0.112339506546E+03   -0.11774E-05   -0.24706E-06 26396   0.626E-03    0.353E-03
RMM:  26    -0.112339507200E+03   -0.65429E-06   -0.44306E-07 23460   0.269E-03
   1 F= -.11619671E+03 E0= -.11619526E+03  d E =-.116197E+03  mag=    -0.0044
 curvature:   0.00 expect dE= 0.000E+00 dE for cont linesearch  0.000E+00
 trial: gam= 0.00000 g(F)=  0.401E-02 g(S)=  0.121E-02 ort = 0.000E+00 (trialstep = 0.100E+01)
 search vector abs. value=  0.521E-02
 bond charge predicted
       N       E                     dE             d eps       ncg     rms          rms(c)
RMM:   1    -0.112340455590E+03   -0.94904E-03   -0.96477E-01 38528   0.394E+00    0.443E-01
RMM:   2    -0.112338438578E+03    0.20170E-02   -0.33308E-03 38528   0.243E-01    0.299E-01
RMM:   3    -0.112338099661E+03    0.33892E-03   -0.62789E-04 38528   0.920E-02    0.136E-01
RMM:   4    -0.112338123085E+03   -0.23424E-04   -0.32886E-04 38528   0.578E-02    0.120E-01
RMM:   5    -0.112337916791E+03    0.20629E-03   -0.90847E-05 38528   0.307E-02    0.169E-02
RMM:   6    -0.112337908983E+03    0.78078E-05   -0.49113E-06 35760   0.765E-03    0.111E-02
RMM:   7    -0.112337908188E+03    0.79480E-06   -0.30160E-06 30855   0.610E-03
   2 F= -.11619750E+03 E0= -.11619619E+03  d E =-.789105E-03  mag=    -0.0004
 trial-energy change:   -0.000789  1 .order   -0.000753   -0.005213    0.003708
 step:   0.5903(harm=  0.5844)  dis= 0.00268  next Energy=  -116.198253 (dE=-0.155E-02)
 bond charge predicted
       N       E                     dE             d eps       ncg     rms          rms(c)
RMM:   1    -0.112340076656E+03   -0.21677E-02   -0.16192E-01 38528   0.161E+00    0.182E-01
RMM:   2    -0.112339741754E+03    0.33490E-03   -0.53631E-04 38528   0.976E-02    0.123E-01
RMM:   3    -0.112339665566E+03    0.76188E-04   -0.10347E-04 38528   0.381E-02    0.391E-02
RMM:   4    -0.112339680376E+03   -0.14809E-04   -0.37998E-05 38528   0.208E-02    0.422E-02
RMM:   5    -0.112339653674E+03    0.26701E-04   -0.97001E-06 35937   0.927E-03    0.643E-03
RMM:   6    -0.112339652612E+03    0.10628E-05   -0.15387E-06 23808   0.457E-03    0.408E-03
RMM:   7    -0.112339652606E+03    0.53160E-08   -0.24468E-07 22621   0.207E-03
   3 F= -.11619826E+03 E0= -.11619690E+03  d E =-.155254E-02  mag=    -0.0000
 curvature:  -0.29 expect dE=-0.179E-03 dE for cont linesearch -0.121E-07
 trial: gam= 0.12056 g(F)=  0.465E-03 g(S)=  0.149E-03 ort =-0.147E-04 (trialstep = 0.918E+00)
 search vector abs. value=  0.686E-03
 bond charge predicted
       N       E                     dE             d eps       ncg     rms          rms(c)
RMM:   1    -0.112344005949E+03   -0.43533E-02   -0.12265E-01 38528   0.146E+00    0.203E-01
RMM:   2    -0.112343538290E+03    0.46766E-03   -0.11964E-03 38528   0.132E-01    0.155E-01
RMM:   3    -0.112343482189E+03    0.56101E-04   -0.59710E-05 38528   0.265E-02    0.729E-02
RMM:   4    -0.112343528068E+03   -0.45879E-04   -0.73638E-05 38528   0.280E-02    0.668E-02
RMM:   5    -0.112343461765E+03    0.66303E-04   -0.26935E-05 38528   0.158E-02    0.772E-03
RMM:   6    -0.112343459556E+03    0.22092E-05   -0.96969E-07 26064   0.317E-03    0.601E-03
RMM:   7    -0.112343458605E+03    0.95109E-06   -0.51939E-07 22525   0.289E-03
   4 F= -.11619846E+03 E0= -.11619712E+03  d E =-.205033E-03  mag=    -0.0000
 trial-energy change:   -0.000205  1 .order   -0.000214   -0.000562    0.000133
 step:   0.7301(harm=  0.7422)  dis= 0.00101  next Energy=  -116.198478 (dE=-0.219E-03)
 bond charge predicted
       N       E                     dE             d eps       ncg     rms          rms(c)
RMM:   1    -0.112342756759E+03    0.70280E-03   -0.51263E-03 38528   0.298E-01    0.410E-02
RMM:   2    -0.112342738917E+03    0.17842E-04   -0.50677E-05 38528   0.270E-02    0.316E-02
RMM:   3    -0.112342736614E+03    0.23030E-05   -0.23428E-06 27546   0.537E-03    0.146E-02
RMM:   4    -0.112342739104E+03   -0.24903E-05   -0.30382E-06 27917   0.592E-03    0.141E-02
RMM:   5    -0.112342736399E+03    0.27052E-05   -0.13145E-06 24069   0.411E-03    0.136E-03
RMM:   6    -0.112342736486E+03   -0.87218E-07   -0.10583E-07 19994   0.146E-03
   5 F= -.11619848E+03 E0= -.11619713E+03  d E =-.219564E-03  mag=    -0.0000
 curvature:  -0.41 expect dE=-0.112E-03 dE for cont linesearch -0.127E-06
 trial: gam= 0.41264 g(F)=  0.159E-03 g(S)=  0.112E-03 ort = 0.145E-04 (trialstep = 0.880E+00)
 search vector abs. value=  0.400E-03
 bond charge predicted
       N       E                     dE             d eps       ncg     rms          rms(c)
RMM:   1    -0.112341248791E+03    0.14876E-02   -0.69467E-02 38528   0.110E+00    0.988E-02
RMM:   2    -0.112341065135E+03    0.18366E-03   -0.40267E-04 38528   0.788E-02    0.689E-02
RMM:   3    -0.112341048991E+03    0.16144E-04   -0.27789E-05 38528   0.170E-02    0.305E-02
RMM:   4    -0.112341060952E+03   -0.11961E-04   -0.21869E-05 38528   0.148E-02    0.352E-02
RMM:   5    -0.112341043307E+03    0.17645E-04   -0.82566E-06 35947   0.913E-03    0.363E-03
RMM:   6    -0.112341043183E+03    0.12334E-06   -0.35324E-07 22132   0.247E-03
   6 F= -.11619863E+03 E0= -.11619730E+03  d E =-.148691E-03  mag=    -0.0000
 trial-energy change:   -0.000149  1 .order   -0.000140   -0.000244   -0.000036
 step:   0.9970(harm=  1.0304)  dis= 0.00118  next Energy=  -116.198630 (dE=-0.151E-03)
 bond charge predicted
       N       E                     dE             d eps       ncg     rms          rms(c)
RMM:   1    -0.112340805427E+03    0.23788E-03   -0.12197E-03 38528   0.146E-01    0.138E-02
RMM:   2    -0.112340802611E+03    0.28161E-05   -0.70625E-06 35801   0.104E-02    0.955E-03
RMM:   3    -0.112340802507E+03    0.10359E-06   -0.62874E-07 22486   0.274E-03
   7 F= -.11619863E+03 E0= -.11619730E+03  d E =-.151974E-03  mag=    -0.0000
 curvature:  -0.71 expect dE=-0.504E-04 dE for cont linesearch -0.454E-06
 ZBRENT: increasing intervall
 opt :   1.2302  next Energy=  -116.198629 (dE=-0.150E-03)
 bond charge predicted
       N       E                     dE             d eps       ncg     rms          rms(c)
RMM:   1    -0.112340324774E+03    0.47784E-03   -0.48454E-03 38528   0.291E-01    0.278E-02
RMM:   2    -0.112340312361E+03    0.12413E-04   -0.29722E-05 38528   0.213E-02    0.200E-02
RMM:   3    -0.112340312097E+03    0.26383E-06   -0.26679E-06 27524   0.508E-03
   8 F= -.11619863E+03 E0= -.11619731E+03  d E =-.149603E-03  mag=     0.0000
 curvature:   3.01 expect dE= 0.339E-03 dE for cont linesearch  0.118E-04
 ZBRENT: bracketing found
 ZBRENT: interpolating
 opt :   1.0642  next Energy=  -116.198631 (dE=-0.153E-03)
 bond charge predicted
       N       E                     dE             d eps       ncg     rms          rms(c)
RMM:   1    -0.112340669709E+03   -0.35735E-03   -0.25049E-03 38528   0.209E-01    0.157E-02
RMM:   2    -0.112340668042E+03    0.16669E-05   -0.15589E-05 38259   0.151E-02    0.204E-02
RMM:   3    -0.112340663184E+03    0.48581E-05   -0.23225E-06 27482   0.462E-03    0.865E-03
RMM:   4    -0.112340662644E+03    0.54011E-06   -0.60694E-07 20202   0.280E-03
   9 F= -.11619863E+03 E0= -.11619731E+03  d E =-.152701E-03  mag=    -0.0000
 curvature:  -0.14 expect dE=-0.133E-04 dE for cont linesearch -0.901E-07
 trial: gam= 0.45693 g(F)=  0.511E-04 g(S)=  0.461E-04 ort =-0.162E-04 (trialstep = 0.917E+00)
 search vector abs. value=  0.166E-03
 bond charge predicted
       N       E                     dE             d eps       ncg     rms          rms(c)
RMM:   1    -0.112342171365E+03   -0.15082E-02   -0.27491E-02 38528   0.691E-01    0.771E-02
RMM:   2    -0.112342078978E+03    0.92387E-04   -0.23720E-04 38528   0.581E-02    0.568E-02
RMM:   3    -0.112342070940E+03    0.80380E-05   -0.11574E-05 36172   0.112E-02    0.289E-02
RMM:   4    -0.112342074987E+03   -0.40467E-05   -0.11400E-05 38058   0.106E-02    0.267E-02
RMM:   5    -0.112342065268E+03    0.97191E-05   -0.56056E-06 35387   0.795E-03    0.691E-03
RMM:   6    -0.112342064265E+03    0.10031E-05   -0.46363E-07 22065   0.236E-03    0.263E-03
RMM:   7    -0.112342063936E+03    0.32877E-06   -0.15723E-07 20585   0.175E-03
  10 F= -.11619867E+03 E0= -.11619735E+03  d E =-.395581E-04  mag=     0.0000
 trial-energy change:   -0.000040  1 .order   -0.000043   -0.000082   -0.000004
 step:   0.9628(harm=  0.9628)  dis= 0.00072  next Energy=  -116.198674 (dE=-0.432E-04)
 bond charge predicted
       N       E                     dE             d eps       ncg     rms          rms(c)
RMM:   1    -0.112342131942E+03   -0.67677E-04   -0.67983E-05 38528   0.343E-02    0.397E-03
RMM:   2    -0.112342131602E+03    0.33955E-06   -0.54915E-07 20693   0.295E-03
  11 F= -.11619867E+03 E0= -.11619735E+03  d E =-.395448E-04  mag=     0.0000
 curvature:  -0.89 expect dE=-0.383E-04 dE for cont linesearch -0.170E-07
 trial: gam= 0.32516 g(F)=  0.343E-04 g(S)=  0.877E-05 ort = 0.178E-05 (trialstep = 0.926E+00)
 search vector abs. value=  0.618E-04
 bond charge predicted
       N       E                     dE             d eps       ncg     rms          rms(c)
RMM:   1    -0.112341958441E+03    0.17350E-03   -0.12135E-02 38528   0.458E-01    0.237E-02
RMM:   2    -0.112341929632E+03    0.28809E-04   -0.46365E-05 38528   0.273E-02    0.160E-02
RMM:   3    -0.112341929905E+03   -0.27287E-06   -0.36954E-06 30526   0.607E-03
  12 F= -.11619870E+03 E0= -.11619738E+03  d E =-.327429E-04  mag=     0.0000
 trial-energy change:   -0.000033  1 .order   -0.000032   -0.000040   -0.000024
 step:   2.2197(harm=  2.2197)  dis= 0.00155  next Energy=  -116.198719 (dE=-0.485E-04)
 reached required accuracy - stopping structural energy minimisation
